 Entering Gaussian System, Link 0=g16
 Input=2dAngle_3.67_left_hpmode_t03noopt.com
 Output=2dAngle_3.67_left_hpmode_t03noopt.log
 Initial command:
 /software/gaussian/16/lssc0-linux/g16/l1.exe "/tmp/Gau-48993.inp" -scrdir="/tmp/"
 Entering Link 1 = /software/gaussian/16/lssc0-linux/g16/l1.exe PID=     48995.
  
 Copyright (c) 1988,1990,1992,1993,1995,1998,2003,2009,2016,
            Gaussian, Inc.  All Rights Reserved.
  
 This is part of the Gaussian(R) 16 program.  It is based on
 the Gaussian(R) 09 system (copyright 2009, Gaussian, Inc.),
 the Gaussian(R) 03 system (copyright 2003, Gaussian, Inc.),
 the Gaussian(R) 98 system (copyright 1998, Gaussian, Inc.),
 the Gaussian(R) 94 system (copyright 1995, Gaussian, Inc.),
 the Gaussian 92(TM) system (copyright 1992, Gaussian, Inc.),
 the Gaussian 90(TM) system (copyright 1990, Gaussian, Inc.),
 the Gaussian 88(TM) system (copyright 1988, Gaussian, Inc.),
 the Gaussian 86(TM) system (copyright 1986, Carnegie Mellon
 University), and the Gaussian 82(TM) system (copyright 1983,
 Carnegie Mellon University). Gaussian is a federally registered
 trademark of Gaussian, Inc.
  
 This software contains proprietary and confidential information,
 including trade secrets, belonging to Gaussian, Inc.
  
 This software is provided under written license and may be
 used, copied, transmitted, or stored only in accord with that
 written license.
  
 The following legend is applicable only to US Government
 contracts under FAR:
  
                    RESTRICTED RIGHTS LEGEND
  
 Use, reproduction and disclosure by the US Government is
 subject to restrictions as set forth in subparagraphs (a)
 and (c) of the Commercial Computer Software - Restricted
 Rights clause in FAR 52.227-19.
  
 Gaussian, Inc.
 340 Quinnipiac St., Bldg. 40, Wallingford CT 06492
  
  
 ---------------------------------------------------------------
 Warning -- This program may not be used in any manner that
 competes with the business of Gaussian, Inc. or will provide
 assistance to any competitor of Gaussian, Inc.  The licensee
 of this program is prohibited from giving any competitor of
 Gaussian, Inc. access to this program.  By using this program,
 the user acknowledges that Gaussian, Inc. is engaged in the
 business of creating and licensing software in the field of
 computational chemistry and represents and warrants to the
 licensee that it is not a competitor of Gaussian, Inc. and that
 it will not use this program in any manner prohibited above.
 ---------------------------------------------------------------
  

 Cite this work as:
 Gaussian 16, Revision A.03,
 M. J. Frisch, G. W. Trucks, H. B. Schlegel, G. E. Scuseria, 
 M. A. Robb, J. R. Cheeseman, G. Scalmani, V. Barone, 
 G. A. Petersson, H. Nakatsuji, X. Li, M. Caricato, A. V. Marenich, 
 J. Bloino, B. G. Janesko, R. Gomperts, B. Mennucci, H. P. Hratchian, 
 J. V. Ortiz, A. F. Izmaylov, J. L. Sonnenberg, D. Williams-Young, 
 F. Ding, F. Lipparini, F. Egidi, J. Goings, B. Peng, A. Petrone, 
 T. Henderson, D. Ranasinghe, V. G. Zakrzewski, J. Gao, N. Rega, 
 G. Zheng, W. Liang, M. Hada, M. Ehara, K. Toyota, R. Fukuda, 
 J. Hasegawa, M. Ishida, T. Nakajima, Y. Honda, O. Kitao, H. Nakai, 
 T. Vreven, K. Throssell, J. A. Montgomery, Jr., J. E. Peralta, 
 F. Ogliaro, M. J. Bearpark, J. J. Heyd, E. N. Brothers, K. N. Kudin, 
 V. N. Staroverov, T. A. Keith, R. Kobayashi, J. Normand, 
 K. Raghavachari, A. P. Rendell, J. C. Burant, S. S. Iyengar, 
 J. Tomasi, M. Cossi, J. M. Millam, M. Klene, C. Adamo, R. Cammi, 
 J. W. Ochterski, R. L. Martin, K. Morokuma, O. Farkas, 
 J. B. Foresman, and D. J. Fox, Gaussian, Inc., Wallingford CT, 2016.
 
 ******************************************
 Gaussian 16:  ES64L-G16RevA.03 25-Dec-2016
                26-Oct-2019 
 ******************************************
 %nprocshared=8
 Will use up to    8 processors via shared memory.
 %mem=16GB
 %chk=2dAngle_3.67_left_hpmode_t02.chk
 %nosave
 ------------------------------------------------------
 # freq=hpmodes b3lyp/6-31g(d) scrf=(smd,solvent=water)
 ------------------------------------------------------
 1/10=4,30=1,38=1/1,3;
 2/12=2,17=6,18=5,40=1/2;
 3/5=1,6=6,7=1,11=2,25=1,30=1,70=32201,71=2,72=1,74=-5,140=1/1,2,3;
 4//1;
 5/5=2,38=5,53=1,98=1/2;
 8/6=4,10=90,11=11/1;
 11/6=1,8=1,9=11,15=111,16=1/1,2,10;
 10/6=1/2;
 6/7=2,8=2,9=2,10=2,28=1/1;
 7/8=11,10=1,25=1/1,2,3,16;
 1/10=4,30=1/3;
 99//99;
 -------------------
 Title Card Required
 -------------------
 Symbolic Z-matrix:
 Charge =  0 Multiplicity = 1
 C                    -0.00628   0.00833  -0.73923 
 C                     0.01006  -0.00821   0.73629 
 C                     1.27934   0.0333    1.51824 
 H                     2.15237   0.35163   0.9546 
 H                     1.46659  -0.9874    1.88399 
 H                     1.15032   0.66355   2.3999 
 C                    -1.24238  -0.07918   1.54252 
 H                    -1.15172   0.55737   2.42431 
 H                    -1.33354  -1.11346   1.90675 
 H                    -2.15039   0.16403   0.99708 
 C                    -1.27688  -0.03341  -1.51868 
 H                    -1.3884   -1.05991  -1.89953 
 H                    -1.19769   0.6177   -2.39068 
 H                    -2.17039   0.20908  -0.94932 
 C                     1.24555   0.07909  -1.54677 
 H                     1.43717  -0.93205  -1.93652 
 H                     2.12627   0.39514  -0.99392 
 H                     1.09231   0.72561  -2.41252 
 Br                    0.16029  -3.66714  -0.05236 
 Br                   -0.10789   2.46839   0.03524 
 

 GradGradGradGradGradGradGradGradGradGradGradGradGradGradGradGradGradGrad
 Berny optimization.
 Initialization pass.
 Trust Radius=3.00D-01 FncErr=1.00D-07 GrdErr=1.00D-07 EigMax=2.50D+02 EigMin=1.00D-04
 Number of steps in this run=      2 maximum allowed number of steps=      2.
 GradGradGradGradGradGradGradGradGradGradGradGradGradGradGradGradGradGrad

                          Input orientation:                          
 ---------------------------------------------------------------------
 Center     Atomic      Atomic             Coordinates (Angstroms)
 Number     Number       Type             X           Y           Z
 ---------------------------------------------------------------------
      1          6           0       -0.006283    0.008327   -0.739232
      2          6           0        0.010057   -0.008205    0.736286
      3          6           0        1.279335    0.033304    1.518235
      4          1           0        2.152371    0.351628    0.954598
      5          1           0        1.466593   -0.987402    1.883989
      6          1           0        1.150323    0.663552    2.399897
      7          6           0       -1.242377   -0.079178    1.542520
      8          1           0       -1.151715    0.557369    2.424311
      9          1           0       -1.333538   -1.113463    1.906745
     10          1           0       -2.150390    0.164034    0.997077
     11          6           0       -1.276878   -0.033409   -1.518681
     12          1           0       -1.388397   -1.059905   -1.899527
     13          1           0       -1.197685    0.617695   -2.390679
     14          1           0       -2.170394    0.209076   -0.949322
     15          6           0        1.245553    0.079086   -1.546770
     16          1           0        1.437169   -0.932051   -1.936521
     17          1           0        2.126274    0.395138   -0.993920
     18          1           0        1.092311    0.725612   -2.412524
     19         35           0        0.160285   -3.667139   -0.052359
     20         35           0       -0.107887    2.468393    0.035243
 ---------------------------------------------------------------------
                    Distance matrix (angstroms):
                    1          2          3          4          5
     1  C    0.000000
     2  C    1.475701   0.000000
     3  C    2.597998   1.491387   0.000000
     4  H    2.765267   2.183266   1.086834   0.000000
     5  H    3.168932   2.097033   1.100310   1.768350   0.000000
     6  H    3.408986   2.125809   1.091414   1.786137   1.758362
     7  C    2.596532   1.491188   2.524336   3.472112   2.877497
     8  H    3.409027   2.125798   2.646814   3.622067   3.087686
     9  H    3.165630   2.096859   2.879778   3.899312   2.803060
    10  H    2.763369   2.182936   3.471557   4.307058   3.898074
    11  C    1.491206   2.596481   3.970080   4.245599   4.473801
    12  H    2.097056   3.163741   4.471353   4.761879   4.740382
    13  H    2.125569   3.410030   4.664413   4.741787   5.286540
    14  H    2.183533   2.764571   4.245040   4.725625   4.763075
    15  C    1.491381   2.597386   3.065533   2.674592   3.599495
    16  H    2.097943   3.167655   3.590566   3.243133   3.821024
    17  H    2.182267   2.763091   2.675659   1.949178   3.260208
    18  H    2.126338   3.409511   3.995639   3.549803   4.640531
    19  Br   3.742805   3.745975   4.172807   4.597049   3.554838
    20  Br   2.581097   2.576608   3.170695   3.230275   4.223668
                    6          7          8          9         10
     6  H    0.000000
     7  C    2.647972   0.000000
     8  H    2.304615   1.091314   0.000000
     9  H    3.093630   1.100325   1.758583   0.000000
    10  H    3.621067   1.086806   1.785794   1.768259   0.000000
    11  C    4.661793   3.061738   3.988969   3.592112   2.670402
    12  H    5.282088   3.582015   4.622463   3.807044   3.235580
    13  H    5.335247   3.994707   4.815587   4.634999   3.548288
    14  H    4.738246   2.674618   3.541245   3.256771   1.947023
    15  C    3.990846   3.969705   4.663168   4.472209   4.243914
    16  H    4.629552   4.473375   5.285598   4.741352   4.762140
    17  H    3.541542   4.243385   4.738759   4.760256   4.723064
    18  H    4.813171   4.662706   5.334691   5.284224   4.738761
    19  Br   5.074310   4.169480   5.069685   3.548360   4.595478
    20  Br   3.229881   3.170027   3.232528   4.223083   3.225990
                   11         12         13         14         15
    11  C    0.000000
    12  H    1.100534   0.000000
    13  H    1.091141   1.758392   0.000000
    14  H    1.086894   1.767688   1.786237   0.000000
    15  C    2.525095   2.891268   2.640397   3.470236   0.000000
    16  H    2.889325   2.828699   3.090377   3.910402   1.100464
    17  H    3.469938   3.910267   3.612364   4.300926   1.086831
    18  H    2.643506   3.099217   2.292641   3.612895   1.091334
    19  Br   4.173671   3.550791   5.066717   4.611036   4.176754
    20  Br   3.168633   4.222787   3.240037   3.213692   3.169125
                   16         17         18         19         20
    16  H    0.000000
    17  H    1.767708   0.000000
    18  H    1.758793   1.786261   0.000000
    19  Br   3.558259   4.610178   5.072998   0.000000
    20  Br   4.223514   3.216992   3.235633   6.142015   0.000000
 Stoichiometry    C6H12Br2
 Framework group  C1[X(C6H12Br2)]
 Deg. of freedom    54
 Full point group                 C1      NOp   1
 Largest Abelian subgroup         C1      NOp   1
 Largest concise Abelian subgroup C1      NOp   1
                         Standard orientation:                         
 ---------------------------------------------------------------------
 Center     Atomic      Atomic             Coordinates (Angstroms)
 Number     Number       Type             X           Y           Z
 ---------------------------------------------------------------------
      1          6           0       -0.357630    0.738765    0.001320
      2          6           0       -0.361166   -0.736931    0.001177
      3          6           0       -0.358367   -1.532504    1.262641
      4          1           0       -0.630414   -0.974470    2.154716
      5          1           0        0.664276   -1.914185    1.401208
      6          1           0       -1.005978   -2.404008    1.151890
      7          6           0       -0.356145   -1.529885   -1.261693
      8          1           0       -1.000485   -2.403909   -1.152719
      9          1           0        0.667962   -1.907083   -1.401840
     10          1           0       -0.630964   -0.970985   -2.152341
     11          6           0       -0.360295    1.531850   -1.261496
     12          1           0        0.665629    1.899942   -1.413690
     13          1           0       -0.994999    2.411669   -1.144630
     14          1           0       -0.649442    0.975949   -2.149588
     15          6           0       -0.362445    1.533026    1.263597
     16          1           0        0.661460    1.906813    1.414998
     17          1           0       -0.647597    0.974629    2.151337
     18          1           0       -1.002785    2.409161    1.147997
     19         35           0        3.311573    0.000165   -0.000205
     20         35           0       -2.830441   -0.001006   -0.000956
 ---------------------------------------------------------------------
 Rotational constants (GHZ):           1.8309705           0.3114481           0.3005096
 Standard basis: 6-31G(d) (6D, 7F)
 There are   174 symmetry adapted cartesian basis functions of A   symmetry.
 There are   174 symmetry adapted basis functions of A   symmetry.
   174 basis functions,   382 primitive gaussians,   174 cartesian basis functions
    59 alpha electrons       59 beta electrons
       nuclear repulsion energy       852.4011282026 Hartrees.
 NAtoms=   20 NActive=   20 NUniq=   20 SFac= 1.00D+00 NAtFMM=   60 NAOKFM=F Big=F
 Integral buffers will be    131072 words long.
 Raffenetti 2 integral format.
 Two-electron integral symmetry is turned on.
 Force inversion solution in PCM.
 ------------------------------------------------------------------------------
 Polarizable Continuum Model (PCM)
 =================================
 Model                : PCM.
 Atomic radii         : SMD-Coulomb.
 Polarization charges : Total charges.
 Charge compensation  : None.
 Solution method      : Matrix inversion.
 Cavity type          : VdW (van der Waals Surface) (Alpha=1.000).
 Cavity algorithm     : GePol (No added spheres)
                        Default sphere list used, NSphG=   20.
                        Lebedev-Laikov grids with approx.  5.0 points / Ang**2.
                        Smoothing algorithm: York/Karplus (Gamma=1.0000).
                        Polarization charges: spherical gaussians, with
                                              point-specific exponents (IZeta= 3).
                        Self-potential: point-specific (ISelfS= 7).
                        Self-field    : sphere-specific E.n sum rule (ISelfD= 2).
 1st derivatives      : Analytical E(r).r(x)/FMM algorithm (CHGder, D1EAlg=3).
                        Cavity 1st derivative terms included.
 2nd derivatives      : Analytical E(r).r(xy)/FMM algorithm (CHGder, D2EAlg=3).
                        Cavity 2nd derivative terms included.
 Solvent              : Water, Eps=  78.355300 Eps(inf)=   1.777849
 ------------------------------------------------------------------------------
 Spheres list:
 ISph  on   Nord     Re0    Alpha      Xe            Ye            Ze
    1   C      1    1.8500  1.000     -0.357630      0.738765      0.001320
    2   C      2    1.8500  1.000     -0.361166     -0.736931      0.001177
    3   C      3    1.8500  1.000     -0.358367     -1.532504      1.262641
    4   H      4    1.2000  1.000     -0.630414     -0.974470      2.154716
    5   H      5    1.2000  1.000      0.664276     -1.914185      1.401208
    6   H      6    1.2000  1.000     -1.005978     -2.404008      1.151890
    7   C      7    1.8500  1.000     -0.356145     -1.529885     -1.261693
    8   H      8    1.2000  1.000     -1.000485     -2.403909     -1.152719
    9   H      9    1.2000  1.000      0.667962     -1.907083     -1.401840
   10   H     10    1.2000  1.000     -0.630964     -0.970985     -2.152341
   11   C     11    1.8500  1.000     -0.360295      1.531850     -1.261496
   12   H     12    1.2000  1.000      0.665629      1.899942     -1.413690
   13   H     13    1.2000  1.000     -0.994999      2.411669     -1.144630
   14   H     14    1.2000  1.000     -0.649442      0.975949     -2.149588
   15   C     15    1.8500  1.000     -0.362445      1.533026      1.263597
   16   H     16    1.2000  1.000      0.661460      1.906813      1.414998
   17   H     17    1.2000  1.000     -0.647597      0.974629      2.151337
   18   H     18    1.2000  1.000     -1.002785      2.409161      1.147997
   19  Br     19    3.0600  1.000      3.311573      0.000165     -0.000205
   20  Br     20    3.0600  1.000     -2.830441     -0.001006     -0.000956
 ------------------------------------------------------------------------------
 ------------------------------------------------------------------------------
 Atomic radii for non-electrostatic terms: SMD-CDS.
 ------------------------------------------------------------------------------
 Nuclear repulsion after PCM non-electrostatic terms =      852.4053740729 Hartrees.
 One-electron integrals computed using PRISM.
 NBasis=   174 RedAO= T EigKep=  7.39D-04  NBF=   174
 NBsUse=   174 1.00D-06 EigRej= -1.00D+00 NBFU=   174
 ExpMin= 1.43D-01 ExpMax= 5.74D+05 ExpMxC= 5.74D+03 IAcc=3 IRadAn=         5 AccDes= 0.00D+00
 Harris functional with IExCor=  402 and IRadAn=       5 diagonalized for initial guess.
 HarFok:  IExCor=  402 AccDes= 0.00D+00 IRadAn=         5 IDoV= 1 UseB2=F ITyADJ=14
 ICtDFT=  3500011 ScaDFX=  1.000000  1.000000  1.000000  1.000000
 FoFCou: FMM=F IPFlag=           0 FMFlag=      100000 FMFlg1=           0
         NFxFlg=           0 DoJE=T BraDBF=F KetDBF=T FulRan=T
         wScrn=  0.000000 ICntrl=       500 IOpCl=  0 I1Cent=   200000004 NGrid=           0
         NMat0=    1 NMatS0=      1 NMatT0=    0 NMatD0=    1 NMtDS0=    0 NMtDT0=    0
 Petite list used in FoFCou.
 Requested convergence on RMS density matrix=1.00D-08 within 128 cycles.
 Requested convergence on MAX density matrix=1.00D-06.
 Requested convergence on             energy=1.00D-06.
 No special actions if energy rises.
 Inv3:  Mode=1 IEnd=     8957952.
 Iteration    1 A*A^-1 deviation from unit magnitude is 4.88D-15 for   1728.
 Iteration    1 A*A^-1 deviation from orthogonality  is 1.97D-15 for    448    189.
 Iteration    1 A^-1*A deviation from unit magnitude is 4.88D-15 for   1728.
 Iteration    1 A^-1*A deviation from orthogonality  is 2.80D-15 for    671    665.
 EnCoef did     9 forward-backward iterations
 EnCoef did     5 forward-backward iterations
 Error on total polarization charges =  0.01422
 SCF Done:  E(RB3LYP) =  -5379.23325112     A.U. after   17 cycles
            NFock= 17  Conv=0.48D-08     -V/T= 2.0064
 SMD-CDS (non-electrostatic) energy       (kcal/mol) =       2.66
 (included in total energy above)
 DoSCS=F DFT=T ScalE2(SS,OS)=  1.000000  1.000000
 Range of M.O.s used for correlation:     1   174
 NBasis=   174 NAE=    59 NBE=    59 NFC=     0 NFV=     0
 NROrb=    174 NOA=    59 NOB=    59 NVA=   115 NVB=   115

 **** Warning!!: The largest alpha MO coefficient is  0.19686293D+02


 **** Warning!!: The smallest alpha delta epsilon is  0.47150896D-01

 Symmetrizing basis deriv contribution to polar:
 IMax=3 JMax=2 DiffMx= 0.00D+00
 G2DrvN: will do    21 centers at a time, making    1 passes.
 Calling FoFCou, ICntrl=  3107 FMM=F I1Cent=   0 AccDes= 0.00D+00.
 NEqPCM:  Using equilibrium solvation (IEInf=0, Eps=  78.3553, EpsInf=   1.7778)
 G2PCM: DoFxE=T DoFxN=T DoGrad=T DoDP/DQ/DG/TGxP=FFFF NFrqRd=   0 IEInf=0 SqF1=F DoCFld=F IF1Alg=4.
 End of G2Drv F.D. properties file   721 does not exist.
 End of G2Drv F.D. properties file   722 does not exist.
 End of G2Drv F.D. properties file   788 does not exist.
          IDoAtm=11111111111111111111
 NEqPCM:  Using equilibrium solvation (IEInf=0, Eps=  78.3553, EpsInf=   1.7778)
          Differentiating once with respect to electric field.
                with respect to dipole field.
          Differentiating once with respect to nuclear coordinates.
 Keep R1 ints in memory in canonical form, NReq=123994596.
          There are    63 degrees of freedom in the 1st order CPHF.  IDoFFX=6 NUNeed=     3.
     60 vectors produced by pass  0 Test12= 1.08D-14 1.59D-09 XBig12= 3.44D+03 5.67D+01.
 AX will form    60 AO Fock derivatives at one time.
     60 vectors produced by pass  1 Test12= 1.08D-14 1.59D-09 XBig12= 4.12D+02 5.14D+00.
     60 vectors produced by pass  2 Test12= 1.08D-14 1.59D-09 XBig12= 7.56D+00 7.32D-01.
     60 vectors produced by pass  3 Test12= 1.08D-14 1.59D-09 XBig12= 2.54D-02 2.85D-02.
     60 vectors produced by pass  4 Test12= 1.08D-14 1.59D-09 XBig12= 7.16D-05 2.48D-03.
     32 vectors produced by pass  5 Test12= 1.08D-14 1.59D-09 XBig12= 1.06D-07 8.34D-05.
      5 vectors produced by pass  6 Test12= 1.08D-14 1.59D-09 XBig12= 8.53D-11 2.10D-06.
      1 vectors produced by pass  7 Test12= 1.08D-14 1.59D-09 XBig12= 4.71D-14 5.85D-08.
      1 vectors produced by pass  8 Test12= 1.08D-14 1.59D-09 XBig12= 4.10D-17 2.96D-09.
 InvSVY:  IOpt=1 It=  1 EMax= 7.11D-14
 Solved reduced A of dimension   339 with    63 vectors.
 Isotropic polarizability for W=    0.000000      214.15 Bohr**3.
 End of Minotr F.D. properties file   721 does not exist.
 End of Minotr F.D. properties file   722 does not exist.
 End of Minotr F.D. properties file   788 does not exist.

 **********************************************************************

            Population analysis using the SCF density.

 **********************************************************************

 Orbital symmetries:
       Occupied  (A) (A) (A) (A) (A) (A) (A) (A) (A) (A) (A) (A)
                 (A) (A) (A) (A) (A) (A) (A) (A) (A) (A) (A) (A)
                 (A) (A) (A) (A) (A) (A) (A) (A) (A) (A) (A) (A)
                 (A) (A) (A) (A) (A) (A) (A) (A) (A) (A) (A) (A)
                 (A) (A) (A) (A) (A) (A) (A) (A) (A) (A) (A)
       Virtual   (A) (A) (A) (A) (A) (A) (A) (A) (A) (A) (A) (A)
                 (A) (A) (A) (A) (A) (A) (A) (A) (A) (A) (A) (A)
                 (A) (A) (A) (A) (A) (A) (A) (A) (A) (A) (A) (A)
                 (A) (A) (A) (A) (A) (A) (A) (A) (A) (A) (A) (A)
                 (A) (A) (A) (A) (A) (A) (A) (A) (A) (A) (A) (A)
                 (A) (A) (A) (A) (A) (A) (A) (A) (A) (A) (A) (A)
                 (A) (A) (A) (A) (A) (A) (A) (A) (A) (A) (A) (A)
                 (A) (A) (A) (A) (A) (A) (A) (A) (A) (A) (A) (A)
                 (A) (A) (A) (A) (A) (A) (A) (A) (A) (A) (A) (A)
                 (A) (A) (A) (A) (A) (A) (A)
 The electronic state is 1-A.
 Alpha  occ. eigenvalues -- -482.90344-482.80184 -61.86465 -61.76398 -56.38490
 Alpha  occ. eigenvalues --  -56.38136 -56.38109 -56.28370 -56.28223 -56.28216
 Alpha  occ. eigenvalues --  -10.30587 -10.30551 -10.19784 -10.19778 -10.19776
 Alpha  occ. eigenvalues --  -10.19767  -8.57395  -8.47452  -6.52692  -6.51554
 Alpha  occ. eigenvalues --   -6.51471  -6.42354  -6.41852  -6.41838  -2.64244
 Alpha  occ. eigenvalues --   -2.63963  -2.63897  -2.62993  -2.62992  -2.53997
 Alpha  occ. eigenvalues --   -2.53868  -2.53857  -2.53459  -2.53459  -0.87957
 Alpha  occ. eigenvalues --   -0.79673  -0.73314  -0.73210  -0.70283  -0.65532
 Alpha  occ. eigenvalues --   -0.63891  -0.52838  -0.50294  -0.47285  -0.47011
 Alpha  occ. eigenvalues --   -0.44491  -0.41339  -0.41241  -0.40186  -0.39715
 Alpha  occ. eigenvalues --   -0.39586  -0.38476  -0.36588  -0.31886  -0.28326
 Alpha  occ. eigenvalues --   -0.28080  -0.21050  -0.20487  -0.20438
 Alpha virt. eigenvalues --   -0.15723  -0.04637   0.08553   0.11335   0.11447
 Alpha virt. eigenvalues --    0.13444   0.14592   0.14671   0.16423   0.16739
 Alpha virt. eigenvalues --    0.17198   0.19701   0.20436   0.20807   0.20876
 Alpha virt. eigenvalues --    0.22993   0.26761   0.27388   0.32008   0.32418
 Alpha virt. eigenvalues --    0.37757   0.39094   0.42172   0.42588   0.44755
 Alpha virt. eigenvalues --    0.44945   0.45056   0.46262   0.48266   0.50338
 Alpha virt. eigenvalues --    0.50913   0.51593   0.53684   0.54731   0.55038
 Alpha virt. eigenvalues --    0.55562   0.55836   0.55914   0.57156   0.58506
 Alpha virt. eigenvalues --    0.63660   0.64610   0.65591   0.66138   0.70344
 Alpha virt. eigenvalues --    0.70893   0.74187   0.77741   0.78217   0.79346
 Alpha virt. eigenvalues --    0.81035   0.81646   0.82708   0.86145   0.86408
 Alpha virt. eigenvalues --    0.90126   0.90326   0.90690   0.90933   0.92325
 Alpha virt. eigenvalues --    0.94396   0.95378   0.97229   0.99633   0.99654
 Alpha virt. eigenvalues --    1.02102   1.07614   1.20923   1.23903   1.26189
 Alpha virt. eigenvalues --    1.34366   1.37792   1.41154   1.43318   1.48867
 Alpha virt. eigenvalues --    1.54385   1.63272   1.63774   1.73171   1.77991
 Alpha virt. eigenvalues --    1.78852   1.79871   1.83512   1.87205   1.89886
 Alpha virt. eigenvalues --    2.00500   2.03703   2.05135   2.07981   2.08257
 Alpha virt. eigenvalues --    2.15208   2.22178   2.22923   2.23198   2.29092
 Alpha virt. eigenvalues --    2.32443   2.33427   2.39767   2.41084   2.42974
 Alpha virt. eigenvalues --    2.50038   2.54593   2.63729   2.81265   2.91250
 Alpha virt. eigenvalues --    4.10205   4.21470   4.24999   4.30401   4.41349
 Alpha virt. eigenvalues --    4.55450   8.66613   8.68204  72.33896  73.83028
          Condensed to atoms (all electrons):
               1          2          3          4          5          6
     1  C    4.795973   0.448375  -0.045966  -0.006079  -0.000471   0.002866
     2  C    0.448375   4.797400   0.370972  -0.024530  -0.022045  -0.024877
     3  C   -0.045966   0.370972   5.208948   0.367813   0.343931   0.363570
     4  H   -0.006079  -0.024530   0.367813   0.482471  -0.019732  -0.023090
     5  H   -0.000471  -0.022045   0.343931  -0.019732   0.483243  -0.019577
     6  H    0.002866  -0.024877   0.363570  -0.023090  -0.019577   0.488640
     7  C   -0.046134   0.370924  -0.068883   0.004379  -0.001813  -0.005325
     8  H    0.002888  -0.024970  -0.005320   0.000041   0.000349   0.004413
     9  H   -0.000505  -0.021979  -0.001798  -0.000051   0.000801   0.000349
    10  H   -0.006131  -0.024497   0.004375  -0.000142  -0.000049   0.000039
    11  C    0.370868  -0.046052   0.005288   0.000020  -0.000135  -0.000088
    12  H   -0.021779  -0.000536  -0.000138  -0.000004   0.000001  -0.000001
    13  H   -0.025102   0.002862  -0.000089  -0.000002  -0.000001   0.000004
    14  H   -0.024611  -0.005992   0.000024   0.000005  -0.000005  -0.000002
    15  C    0.371057  -0.045977  -0.014540   0.002382   0.000460   0.000321
    16  H   -0.021815  -0.000482   0.000478  -0.000234   0.000042  -0.000009
    17  H   -0.024763  -0.005995   0.002292   0.007544  -0.000226  -0.000016
    18  H   -0.024917   0.002835   0.000325  -0.000016  -0.000009   0.000003
    19  Br   0.020190   0.019497  -0.004588   0.000093   0.005185   0.000160
    20  Br   0.066624   0.068945  -0.022115  -0.001341   0.002384  -0.002354
               7          8          9         10         11         12
     1  C   -0.046134   0.002888  -0.000505  -0.006131   0.370868  -0.021779
     2  C    0.370924  -0.024970  -0.021979  -0.024497  -0.046052  -0.000536
     3  C   -0.068883  -0.005320  -0.001798   0.004375   0.005288  -0.000138
     4  H    0.004379   0.000041  -0.000051  -0.000142   0.000020  -0.000004
     5  H   -0.001813   0.000349   0.000801  -0.000049  -0.000135   0.000001
     6  H   -0.005325   0.004413   0.000349   0.000039  -0.000088  -0.000001
     7  C    5.209399   0.363654   0.343743   0.367829  -0.014605   0.000488
     8  H    0.363654   0.488786  -0.019546  -0.023129   0.000322  -0.000009
     9  H    0.343743  -0.019546   0.483201  -0.019708   0.000467   0.000045
    10  H    0.367829  -0.023129  -0.019708   0.482551   0.002402  -0.000240
    11  C   -0.014605   0.000322   0.000467   0.002402   5.210054   0.343223
    12  H    0.000488  -0.000009   0.000045  -0.000240   0.343223   0.483217
    13  H    0.000327   0.000003  -0.000009  -0.000015   0.363999  -0.019562
    14  H    0.002232  -0.000013  -0.000228   0.007558   0.367918  -0.019648
    15  C    0.005291  -0.000088  -0.000136   0.000021  -0.068792  -0.001601
    16  H   -0.000137  -0.000001   0.000001  -0.000004  -0.001626   0.000710
    17  H    0.000024  -0.000002  -0.000004   0.000005   0.004368  -0.000054
    18  H   -0.000089   0.000004  -0.000001  -0.000002  -0.005404   0.000353
    19  Br  -0.004659   0.000161   0.005292   0.000095  -0.004703   0.005270
    20  Br  -0.022159  -0.002351   0.002389  -0.001360  -0.022055   0.002397
              13         14         15         16         17         18
     1  C   -0.025102  -0.024611   0.371057  -0.021815  -0.024763  -0.024917
     2  C    0.002862  -0.005992  -0.045977  -0.000482  -0.005995   0.002835
     3  C   -0.000089   0.000024  -0.014540   0.000478   0.002292   0.000325
     4  H   -0.000002   0.000005   0.002382  -0.000234   0.007544  -0.000016
     5  H   -0.000001  -0.000005   0.000460   0.000042  -0.000226  -0.000009
     6  H    0.000004  -0.000002   0.000321  -0.000009  -0.000016   0.000003
     7  C    0.000327   0.002232   0.005291  -0.000137   0.000024  -0.000089
     8  H    0.000003  -0.000013  -0.000088  -0.000001  -0.000002   0.000004
     9  H   -0.000009  -0.000228  -0.000136   0.000001  -0.000004  -0.000001
    10  H   -0.000015   0.007558   0.000021  -0.000004   0.000005  -0.000002
    11  C    0.363999   0.367918  -0.068792  -0.001626   0.004368  -0.005404
    12  H   -0.019562  -0.019648  -0.001601   0.000710  -0.000054   0.000353
    13  H    0.488442  -0.023082  -0.005385   0.000354   0.000048   0.004492
    14  H   -0.023082   0.481933   0.004347  -0.000052  -0.000143   0.000045
    15  C   -0.005385   0.004347   5.209366   0.343507   0.367917   0.363889
    16  H    0.000354  -0.000052   0.343507   0.483122  -0.019686  -0.019550
    17  H    0.000048  -0.000143   0.367917  -0.019686   0.482233  -0.023082
    18  H    0.004492   0.000045   0.363889  -0.019550  -0.023082   0.488214
    19  Br   0.000159   0.000100  -0.004611   0.005143   0.000099   0.000158
    20  Br  -0.002338  -0.001367  -0.022002   0.002390  -0.001353  -0.002341
              19         20
     1  C    0.020190   0.066624
     2  C    0.019497   0.068945
     3  C   -0.004588  -0.022115
     4  H    0.000093  -0.001341
     5  H    0.005185   0.002384
     6  H    0.000160  -0.002354
     7  C   -0.004659  -0.022159
     8  H    0.000161  -0.002351
     9  H    0.005292   0.002389
    10  H    0.000095  -0.001360
    11  C   -0.004703  -0.022055
    12  H    0.005270   0.002397
    13  H    0.000159  -0.002338
    14  H    0.000100  -0.001367
    15  C   -0.004611  -0.022002
    16  H    0.005143   0.002390
    17  H    0.000099  -0.001353
    18  H    0.000158  -0.002341
    19  Br  35.656447   0.000226
    20  Br   0.000226  35.187137
 Mulliken charges:
               1
     1  C    0.169431
     2  C    0.166121
     3  C   -0.504581
     4  H    0.210473
     5  H    0.227668
     6  H    0.214975
     7  C   -0.504485
     8  H    0.214807
     9  H    0.227678
    10  H    0.210400
    11  C   -0.505470
    12  H    0.227868
    13  H    0.214893
    14  H    0.210980
    15  C   -0.505426
    16  H    0.227852
    17  H    0.210794
    18  H    0.215093
    19  Br  -0.699715
    20  Br  -0.229356
 Sum of Mulliken charges =  -0.00000
 Mulliken charges with hydrogens summed into heavy atoms:
               1
     1  C    0.169431
     2  C    0.166121
     3  C    0.148534
     7  C    0.148400
    11  C    0.148271
    15  C    0.148313
    19  Br  -0.699715
    20  Br  -0.229356
 APT charges:
               1
     1  C    1.104146
     2  C    1.096675
     3  C   -0.201522
     4  H    0.040724
     5  H    0.058819
     6  H    0.047287
     7  C   -0.201462
     8  H    0.046921
     9  H    0.058627
    10  H    0.040739
    11  C   -0.202425
    12  H    0.058497
    13  H    0.046202
    14  H    0.041283
    15  C   -0.202466
    16  H    0.058973
    17  H    0.040977
    18  H    0.046621
    19  Br  -0.889109
    20  Br  -1.089505
 Sum of APT charges =  -0.00000
 APT charges with hydrogens summed into heavy atoms:
               1
     1  C    1.104146
     2  C    1.096675
     3  C   -0.054693
     7  C   -0.055176
    11  C   -0.056444
    15  C   -0.055895
    19  Br  -0.889109
    20  Br  -1.089505
 Electronic spatial extent (au):  <R**2>=           3224.5397
 Charge=             -0.0000 electrons
 Dipole moment (field-independent basis, Debye):
    X=             -8.8008    Y=              0.0090    Z=              0.0055  Tot=              8.8008
 Quadrupole moment (field-independent basis, Debye-Ang):
   XX=           -116.8591   YY=            -64.7405   ZZ=            -69.7214
   XY=             -0.0223   XZ=             -0.0069   YZ=             -0.0002
 Traceless Quadrupole moment (field-independent basis, Debye-Ang):
   XX=            -33.0854   YY=             19.0332   ZZ=             14.0523
   XY=             -0.0223   XZ=             -0.0069   YZ=             -0.0002
 Octapole moment (field-independent basis, Debye-Ang**2):
  XXX=            -99.9536  YYY=              0.0257  ZZZ=             -0.0219  XYY=             -6.3457
  XXY=             -0.0292  XXZ=             -0.0217  XZZ=             -3.7754  YZZ=              0.0474
  YYZ=              0.0362  XYZ=             -0.0018
 Hexadecapole moment (field-independent basis, Debye-Ang**3):
 XXXX=          -2700.7403 YYYY=           -510.2633 ZZZZ=           -377.8144 XXXY=             -0.0841
 XXXZ=              0.0367 YYYX=             -0.0750 YYYZ=              0.0197 ZZZX=              0.0645
 ZZZY=             -0.0235 XXYY=           -478.7623 XXZZ=           -464.7175 YYZZ=           -147.9708
 XXYZ=              0.0129 YYXZ=             -0.0035 ZZXY=              0.0594
 N-N= 8.524053740729D+02 E-N=-1.451774807412D+04  KE= 5.345238431482D+03
  Exact polarizability: 392.106  -0.234 136.384  -0.014   0.001 113.966
 Approx polarizability: 912.140  -0.706 147.773   0.018   0.000 124.981
 D2PCM: PCM CHGder 2nd derivatives, FixD1E=F FixD2E=F DoIter=F DoCFld=F I1PDM=0
 Calling FoFJK, ICntrl=    100127 FMM=F ISym2X=0 I1Cent= 0 IOpClX= 0 NMat=1 NMatS=1 NMatT=0.
 Full mass-weighted force constant matrix:
 Low frequencies --- -120.4060  -84.7579  -58.5697  -57.4224  -14.2893   -3.8833
 Low frequencies ---   -0.0100   -0.0068    0.0095
 ******    3 imaginary frequencies (negative Signs) ****** 
 Diagonal vibrational polarizability:
     2025.5558398    2326.3163519     155.9703449
 Harmonic frequencies (cm**-1), IR intensities (KM/Mole), Raman scattering
 activities (A**4/AMU), depolarization ratios for plane and unpolarized
 incident light, reduced masses (AMU), force constants (mDyne/A),
 and normal coordinates:
                           1         2         3         4         5
                           A         A         A         A         A
       Frequencies ---  -120.1198  -84.7552  -57.4194   18.2849   40.4307
    Reduced masses ---     1.0398    3.6179   11.4014    3.3941    1.9943
   Force constants ---     0.0088    0.0153    0.0221    0.0007    0.0019
    IR Intensities ---     0.0207   19.6810  136.8039   28.1171    3.7686
 Coord Atom Element:
   1     1     6         -0.00254  -0.19102  -0.29634   0.01479   0.00010
   2     1     6         -0.00040  -0.02895   0.00668  -0.13248  -0.00176
   3     1     6         -0.00286  -0.00002   0.00159   0.00023  -0.07930
   1     2     6          0.00238   0.21808  -0.27329  -0.00597  -0.00021
   2     2     6         -0.00042  -0.02851  -0.00167  -0.13189  -0.00178
   3     2     6          0.00383  -0.00008   0.00150   0.00024  -0.07871
   1     3     6          0.02997   0.18190  -0.17881  -0.07621   0.08987
   2     3     6          0.00185  -0.02236   0.01343  -0.14183   0.02116
   3     3     6          0.00270  -0.00625   0.00638  -0.00734  -0.06582
   1     4     1          0.31009   0.35389  -0.28025   0.09582  -0.07623
   2     4     1          0.06048   0.02135  -0.01787  -0.09967  -0.01344
   3     4     1          0.05084   0.01710  -0.00419   0.01815  -0.09394
   1     5     1         -0.03595   0.11737  -0.11162  -0.14739   0.16912
   2     5     1         -0.23638  -0.21935   0.19318  -0.35757   0.25731
   3     5     1         -0.16964  -0.08514   0.02207  -0.07819   0.00361
   1     6     1         -0.18338   0.02713  -0.02933  -0.25463   0.28527
   2     6     1          0.14687   0.08380  -0.09766  -0.01458  -0.12154
   3     6     1          0.10585   0.03399   0.00731   0.02339  -0.07936
   1     7     6         -0.02625   0.18278  -0.17352  -0.07367  -0.09316
   2     7     6         -0.00291  -0.02208   0.01486  -0.13942  -0.02545
   3     7     6          0.00306   0.00601  -0.00394   0.00615  -0.06572
   1     8     1          0.18441   0.00873  -0.02263  -0.23499  -0.29797
   2     8     1         -0.14509   0.09644  -0.09678  -0.02523   0.12279
   3     8     1          0.10575  -0.04239  -0.00842  -0.02070  -0.08108
   1     9     1          0.03710   0.11321  -0.10588  -0.13767  -0.17481
   2     9     1          0.23147  -0.24061   0.19691  -0.33492  -0.27258
   3     9     1         -0.16716   0.09836  -0.01617   0.06590   0.00680
   1    10     1         -0.30261   0.37808  -0.27223   0.07988   0.08140
   2    10     1         -0.06225   0.02787  -0.01628  -0.09923   0.01181
   3    10     1          0.05053  -0.02112   0.00618  -0.01546  -0.09520
   1    11     6          0.02276  -0.16984  -0.19871   0.07871  -0.10250
   2    11     6         -0.00083  -0.02147  -0.00847  -0.14157   0.02168
   3    11     6         -0.00064  -0.00592  -0.00436  -0.00704  -0.06633
   1    12     1         -0.03657  -0.11656  -0.12993   0.14048  -0.18375
   2    12     1          0.23429  -0.20124  -0.20265  -0.34166   0.27452
   3    12     1          0.16938  -0.09066  -0.02574  -0.07541   0.00124
   1    13     1         -0.18990  -0.02698  -0.03767   0.24592  -0.31264
   2    13     1         -0.14114   0.07242   0.10742  -0.02596  -0.12779
   3    13     1         -0.09735   0.03681  -0.00517   0.02104  -0.07602
   1    14     1          0.29562  -0.33729  -0.30984  -0.08221   0.06774
   2    14     1         -0.05926   0.02062   0.02718  -0.09990  -0.01853
   3    14     1         -0.05214   0.02043   0.00866   0.01874  -0.09567
   1    15     6         -0.02698  -0.16980  -0.20374   0.07417   0.10324
   2    15     6         -0.00018  -0.02149  -0.00711  -0.13858  -0.02516
   3    15     6         -0.00030   0.00564   0.00689   0.00574  -0.06594
   1    16     1          0.03515  -0.12078  -0.13853   0.12920   0.18536
   2    16     1         -0.23919  -0.18121  -0.18636  -0.31187  -0.27549
   3    16     1          0.17138   0.07770   0.02352   0.06176   0.00037
   1    17     1         -0.30346  -0.31589  -0.30398  -0.06440  -0.06489
   2    17     1          0.05741   0.01503   0.02528  -0.10177   0.01326
   3    17     1         -0.05210  -0.01659  -0.00417  -0.01518  -0.09491
   1    18     1          0.18780  -0.04519  -0.05569   0.21801   0.31041
   2    18     1          0.14360   0.06135   0.10101  -0.03791   0.12433
   3    18     1         -0.09698  -0.03017   0.00897  -0.01864  -0.07362
   1    19    35          0.00034  -0.00195   0.29246   0.00547   0.00155
   2    19    35         -0.00020  -0.02598  -0.00409   0.08070   0.00108
   3    19    35         -0.00015   0.00000  -0.00103   0.00003   0.04445
   1    20    35         -0.00021  -0.00643  -0.06812  -0.00712  -0.00101
   2    20    35          0.00076   0.05367   0.00097   0.06849   0.00096
   3    20    35         -0.00096   0.00011  -0.00036   0.00047   0.02835
                           6         7         8         9        10
                           A         A         A         A         A
       Frequencies ---    58.5066   87.4024  132.7718  148.9943  156.0769
    Reduced masses ---     1.6453    5.5905    2.3018    1.3378    1.3003
   Force constants ---     0.0033    0.0252    0.0239    0.0175    0.0187
    IR Intensities ---    11.1832  234.7392    0.0229    3.4855    5.0738
 Coord Atom Element:
   1     1     6          0.00013  -0.20950  -0.00295  -0.02444  -0.00516
   2     1     6          0.00175  -0.00537  -0.00404  -0.05856   0.00554
   3     1     6         -0.05901  -0.00182  -0.00539   0.00055   0.00085
   1     2     6          0.00043  -0.18357   0.00193   0.02547  -0.00948
   2     2     6          0.00182  -0.01764  -0.00411  -0.05873   0.00427
   3     2     6         -0.05921  -0.00187   0.00580   0.00017   0.00083
   1     3     6          0.02777  -0.07794  -0.17419   0.02879  -0.05248
   2     3     6         -0.02535   0.00310  -0.01412  -0.04458  -0.02417
   3     3     6         -0.07751   0.01047   0.00762   0.00668  -0.01151
   1     4     1          0.27009  -0.25407  -0.16656  -0.20924   0.19111
   2     4     1          0.00566  -0.03669   0.01401  -0.08847   0.01751
   3     4     1         -0.02363  -0.01677  -0.00793  -0.03805   0.03581
   1     5     1         -0.03513   0.01613  -0.24629   0.09756  -0.14183
   2     5     1         -0.24960   0.27296  -0.18084   0.18668  -0.30630
   3     5     1         -0.23876   0.06576   0.07531   0.14827  -0.14399
   1     6     1         -0.17081   0.13884  -0.30158   0.23358  -0.29482
   2     6     1          0.11298  -0.15553   0.08732  -0.18719   0.14852
   3     6     1         -0.00839  -0.00304  -0.05082  -0.06178   0.03799
   1     7     6         -0.02533  -0.08110   0.17695   0.01351  -0.05557
   2     7     6          0.02928   0.00350   0.00699  -0.04563  -0.02455
   3     7     6         -0.07761  -0.01436   0.00764  -0.00640   0.01319
   1     8     1          0.17857   0.13043   0.32921   0.20913  -0.29443
   2     8     1         -0.11183  -0.15016  -0.11053  -0.17979   0.14471
   3     8     1         -0.00770  -0.00192  -0.04061   0.06715  -0.03222
   1     9     1          0.03829   0.00941   0.25617   0.07544  -0.14276
   2     9     1          0.25970   0.26686   0.20084   0.17323  -0.30291
   3     9     1         -0.24044  -0.06781   0.05826  -0.15430   0.13973
   1    10     1         -0.27227  -0.25278   0.13988  -0.22498   0.18085
   2    10     1         -0.00378  -0.03547  -0.02771  -0.08836   0.01698
   3    10     1         -0.02284   0.01260  -0.00304   0.03997  -0.03281
   1    11     6         -0.01875  -0.09566  -0.16895  -0.02089  -0.04909
   2    11     6         -0.02545  -0.02543   0.00214  -0.03952   0.03177
   3    11     6         -0.07690  -0.01546  -0.00946   0.01029   0.01242
   1    12     1          0.04151   0.00199  -0.23874  -0.09170  -0.12167
   2    12     1         -0.25591  -0.32075   0.17039   0.22295   0.27412
   3    12     1         -0.23441  -0.07749  -0.06733   0.17937   0.12013
   1    13     1          0.18609   0.14174  -0.30048  -0.25500  -0.25722
   2    13     1          0.11350   0.14273  -0.09839  -0.19733  -0.11289
   3    13     1         -0.01379  -0.00093   0.03846  -0.06569  -0.02168
   1    14     1         -0.25767  -0.28908  -0.14907   0.25219   0.15127
   2    14     1          0.00923   0.02331  -0.03185  -0.08815  -0.00480
   3    14     1         -0.02133   0.01548   0.00563  -0.04742  -0.02920
   1    15     6          0.01733  -0.09627   0.16342  -0.03284  -0.04841
   2    15     6          0.02920  -0.02484  -0.00801  -0.03924   0.03153
   3    15     6         -0.07718   0.01170  -0.00993  -0.00871  -0.01058
   1    16     1         -0.04540   0.00433   0.22374  -0.11125  -0.12420
   2    16     1          0.26250  -0.32462  -0.13871   0.23809   0.28012
   3    16     1         -0.23530   0.07755  -0.09127  -0.17538  -0.12287
   1    17     1          0.25837  -0.29575   0.18228   0.24526   0.15941
   2    17     1         -0.00478   0.02412   0.01749  -0.08988  -0.00558
   3    17     1         -0.02160  -0.02005   0.01235   0.04798   0.03209
   1    18     1         -0.18896   0.14460   0.26091  -0.27809  -0.26164
   2    18     1         -0.11274   0.14774   0.07063  -0.20768  -0.11844
   3    18     1         -0.01438  -0.00539   0.05071   0.06555   0.02666
   1    19    35          0.00014  -0.07423  -0.00004   0.00077   0.00486
   2    19    35         -0.00108   0.00309   0.00054   0.00706  -0.00058
   3    19    35          0.03894   0.00084  -0.00037  -0.00002  -0.00016
   1    20    35         -0.00041   0.19381   0.00075   0.00154   0.04083
   2    20    35         -0.00095   0.00891   0.00302   0.04038  -0.00353
   3    20    35          0.03987   0.00116   0.00119  -0.00044  -0.00075
                          11        12        13        14        15
                           A         A         A         A         A
       Frequencies ---   181.8439  350.6613  353.8910  364.4075  448.0467
    Reduced masses ---     2.7643    2.0398    2.7593    2.2452    2.4510
   Force constants ---     0.0539    0.1478    0.2036    0.1757    0.2899
    IR Intensities ---     2.9151  221.0225    2.1444    7.6314    0.9027
 Coord Atom Element:
   1     1     6          0.00077   0.18755  -0.01650  -0.18653   0.02096
   2     1     6         -0.00035  -0.00035  -0.00078  -0.03607   0.02616
   3     1     6         -0.07138  -0.00541  -0.09640   0.00060  -0.00136
   1     2     6          0.00068   0.16849  -0.01219   0.20570   0.01829
   2     2     6         -0.00043   0.00364  -0.00038  -0.03629  -0.02612
   3     2     6         -0.07162  -0.00543  -0.09716   0.00056  -0.00061
   1     3     6         -0.14325  -0.07784  -0.01809  -0.06119  -0.00382
   2     3     6         -0.01375   0.02289   0.18627   0.03489  -0.16315
   3     3     6         -0.07548   0.02249   0.01516   0.05389  -0.07050
   1     4     1         -0.33553  -0.28089   0.08624  -0.21539  -0.12631
   2     4     1         -0.03369   0.05471   0.30250   0.14789  -0.27843
   3     4     1         -0.12071  -0.05982  -0.03674  -0.06386  -0.02698
   1     5     1         -0.13881  -0.12694  -0.04803  -0.14604   0.02616
   2     5     1          0.06042  -0.00674   0.10455  -0.08292  -0.07641
   3     5     1          0.09601   0.29731   0.00784   0.33496  -0.04301
   1     6     1         -0.06413  -0.08308  -0.11046  -0.13881   0.09537
   2     6     1         -0.05765   0.04469   0.23487   0.10032  -0.21515
   3     6     1         -0.19114  -0.09959   0.18470  -0.01803  -0.23059
   1     7     6          0.14217  -0.07486   0.02930  -0.06118  -0.00387
   2     7     6          0.01137   0.00154  -0.18325   0.03693  -0.16687
   3     7     6         -0.07454  -0.02078   0.01544  -0.05445   0.07159
   1     8     1          0.05693  -0.06994   0.11924  -0.14004   0.09695
   2     8     1          0.05970   0.01749  -0.23332   0.10233  -0.21944
   3     8     1         -0.18950   0.11861   0.16113   0.01483   0.23477
   1     9     1          0.13578  -0.12052   0.06467  -0.14608   0.02588
   2     9     1         -0.07053  -0.01851  -0.10020  -0.08126  -0.07916
   3     9     1          0.09939  -0.29453   0.04674  -0.33596   0.04326
   1    10     1          0.33930  -0.28778  -0.04218  -0.21433  -0.12787
   2    10     1          0.03194   0.01990  -0.29766   0.15103  -0.28301
   3    10     1         -0.12148   0.05566  -0.04531   0.06459   0.02775
   1    11     6          0.14926  -0.08061   0.02805   0.05251  -0.00613
   2    11     6         -0.01198  -0.00517   0.18380   0.03521   0.16722
   3    11     6         -0.07441  -0.02533   0.01760   0.05205   0.07132
   1    12     1          0.14289  -0.13949   0.06542   0.13481   0.02211
   2    12     1          0.08467   0.03122   0.09329  -0.08293   0.07641
   3    12     1          0.11618  -0.32450   0.04651   0.30110   0.03307
   1    13     1          0.04864  -0.08636   0.12663   0.13393   0.10103
   2    13     1         -0.06831  -0.03016   0.23727   0.09914   0.22076
   3    13     1         -0.19634   0.11669   0.16543   0.00047   0.23915
   1    14     1          0.36661  -0.30218  -0.04747   0.17757  -0.13771
   2    14     1         -0.03665  -0.03586   0.30200   0.14901   0.28497
   3    14     1         -0.12908   0.06548  -0.04234  -0.05996   0.03177
   1    15     6         -0.15068  -0.08311  -0.01438   0.05299  -0.00581
   2    15     6          0.01330  -0.02660  -0.18508   0.03779   0.16215
   3    15     6         -0.07567   0.02700   0.01413  -0.05193  -0.07139
   1    16     1         -0.14914  -0.14545  -0.04162   0.13647   0.02288
   2    16     1         -0.06477   0.01909  -0.10316  -0.08206   0.07218
   3    16     1          0.10587   0.32628  -0.00633  -0.30077  -0.03413
   1    17     1         -0.35207  -0.29375   0.09787   0.17600  -0.13575
   2    17     1          0.03484  -0.07051  -0.29771   0.15280   0.27692
   3    17     1         -0.12620  -0.06895  -0.03128   0.06014  -0.03261
   1    18     1         -0.06640  -0.09986  -0.10963   0.13605   0.09881
   2    18     1          0.05904  -0.05753  -0.23367   0.10352   0.21561
   3    18     1         -0.19534  -0.09788   0.18554  -0.00135  -0.23422
   1    19    35          0.00008   0.00643  -0.00050   0.00035   0.00021
   2    19    35          0.00004  -0.00014   0.00004   0.00172  -0.00001
   3    19    35          0.00252   0.00012   0.00206  -0.00001   0.00004
   1    20    35          0.00028   0.01355  -0.00097   0.00065  -0.00271
   2    20    35          0.00025   0.00116  -0.00024  -0.02139   0.00017
   3    20    35          0.07574   0.00057   0.00977  -0.00005   0.00000
                          16        17        18        19        20
                           A         A         A         A         A
       Frequencies ---   470.1604  476.8327  686.8721  888.6808  911.3166
    Reduced masses ---     3.1474    2.2914    3.4197    2.5046    1.3046
   Force constants ---     0.4099    0.3070    0.9506    1.1654    0.6384
    IR Intensities ---     0.0001    0.0018   15.0747   33.3062    7.6072
 Coord Atom Element:
   1     1     6          0.00136  -0.09253  -0.02946   0.03284   0.00015
   2     1     6         -0.00258   0.13726   0.10786   0.14148  -0.00022
   3     1     6         -0.14591  -0.00215  -0.00021  -0.00026  -0.06152
   1     2     6         -0.00157   0.09298  -0.03024  -0.03279   0.00021
   2     2     6         -0.00245   0.13696  -0.10844   0.14033  -0.00054
   3     2     6          0.14567   0.00200  -0.00028  -0.00005  -0.02116
   1     3     6          0.01770  -0.02275   0.01953   0.03107   0.03013
   2     3     6         -0.14407  -0.03162  -0.11035  -0.03981  -0.00506
   3     3     6          0.13083  -0.11672   0.18952   0.14500   0.00602
   1     4     1         -0.00154  -0.13996   0.03537  -0.06550  -0.07351
   2     4     1         -0.30469  -0.23302   0.01785  -0.28555   0.01428
   3     4     1          0.22950  -0.02670   0.11890   0.28138  -0.03722
   1     5     1          0.01711  -0.04800   0.01718  -0.01805  -0.02862
   2     5     1         -0.16496  -0.08038  -0.09525  -0.15719  -0.08895
   3     5     1          0.06888  -0.07121   0.23383   0.12630   0.15500
   1     6     1          0.02546  -0.00964  -0.01513  -0.02623  -0.05409
   2     6     1         -0.13243  -0.00650  -0.10784   0.02742   0.06330
   3     6     1         -0.02816  -0.36809   0.32215  -0.08376  -0.04872
   1     7     6         -0.01730  -0.02383   0.01995   0.03185  -0.03040
   2     7     6          0.14624  -0.02845  -0.10997  -0.03947   0.00514
   3     7     6          0.12605   0.12004  -0.18937  -0.14490   0.00701
   1     8     1         -0.02606  -0.01227  -0.01391  -0.02711   0.05458
   2     8     1          0.13427  -0.00303  -0.10801   0.02823  -0.06330
   3     8     1         -0.04316   0.36770  -0.32187   0.08497  -0.04923
   1     9     1         -0.01602  -0.04980   0.01796  -0.01806   0.02857
   2     9     1          0.16863  -0.07885  -0.09370  -0.15914   0.08992
   3     9     1          0.06618   0.07231  -0.23334  -0.12930   0.15606
   1    10     1          0.00650  -0.13900   0.03480  -0.06588   0.07393
   2    10     1          0.31466  -0.22504   0.01733  -0.28421  -0.01207
   3    10     1          0.22849   0.03252  -0.11883  -0.28041  -0.03548
   1    11     6          0.01711   0.02390   0.02044  -0.03250  -0.08957
   2    11     6          0.14635  -0.02675   0.11015  -0.03964  -0.04776
   3    11     6         -0.12635  -0.11972  -0.18977   0.14491   0.00939
   1    12     1          0.01560   0.05151   0.01731   0.01908   0.06573
   2    12     1          0.17098  -0.08090   0.09521  -0.16486  -0.22841
   3    12     1         -0.06818  -0.07072  -0.23244   0.13325   0.47434
   1    13     1          0.02595   0.01234  -0.01652   0.02766   0.16978
   2    13     1          0.13294   0.00073   0.10764   0.03060   0.13847
   3    13     1          0.04350  -0.36565  -0.32175  -0.09080  -0.00276
   1    14     1         -0.00673   0.13695   0.03505   0.06979   0.18381
   2    14     1          0.31331  -0.22078  -0.01568  -0.28505   0.16837
   3    14     1         -0.22739  -0.03531  -0.12063   0.27761  -0.21439
   1    15     6         -0.01740   0.02249   0.01972  -0.03087   0.08930
   2    15     6         -0.14628  -0.03096   0.11039  -0.03961   0.04816
   3    15     6         -0.13032   0.11654   0.19000  -0.14473   0.01012
   1    16     1         -0.01702   0.04902   0.01620   0.01833  -0.06665
   2    16     1         -0.16817  -0.08212   0.09674  -0.15996   0.22857
   3    16     1         -0.07046   0.06957   0.23307  -0.12622   0.47515
   1    17     1          0.00375   0.13899   0.03609   0.06777  -0.18315
   2    17     1         -0.30641  -0.23046  -0.01673  -0.28614  -0.16691
   3    17     1         -0.22860   0.02859   0.12014  -0.28044  -0.21203
   1    18     1         -0.02646   0.00869  -0.01774   0.02503  -0.16861
   2    18     1         -0.13447  -0.00488   0.10713   0.02759  -0.13986
   3    18     1          0.03094   0.36748   0.32273   0.08819  -0.00530
   1    19    35         -0.00000  -0.00005   0.00003   0.00000   0.00000
   2    19    35          0.00003  -0.00077   0.00001  -0.00034   0.00000
   3    19    35          0.00000  -0.00001  -0.00001   0.00000   0.00014
   1    20    35          0.00001   0.00002  -0.00493  -0.00003   0.00000
   2    20    35          0.00010  -0.00711  -0.00002   0.00290  -0.00000
   3    20    35         -0.00002   0.00000   0.00000  -0.00000  -0.00088
                          21        22        23        24        25
                           A         A         A         A         A
       Frequencies ---   913.3135  999.1296 1015.5477 1038.8767 1058.4254
    Reduced masses ---     1.3185    1.3507    1.3022    1.5691    1.6078
   Force constants ---     0.6480    0.7944    0.7913    0.9978    1.0612
    IR Intensities ---     2.1372    0.0014    0.4930    1.5999   45.9347
 Coord Atom Element:
   1     1     6          0.00006  -0.00008   0.00024  -0.06028  -0.10582
   2     1     6          0.00039  -0.00005   0.00004  -0.09395   0.00953
   3     1     6          0.01623   0.03485  -0.04833  -0.00005  -0.00008
   1     2     6          0.00009   0.00003   0.00000  -0.05794   0.10747
   2     2     6          0.00023  -0.00013  -0.00002   0.09490   0.00778
   3     2     6         -0.06061  -0.03840  -0.04509  -0.00011  -0.00011
   1     3     6          0.08746  -0.04852  -0.02705   0.04656  -0.08355
   2     3     6         -0.05621  -0.07277  -0.06610   0.02640   0.00535
   3     3     6          0.00748   0.00578  -0.00224   0.06076   0.03203
   1     4     1         -0.17592   0.13249   0.09236  -0.13657   0.19773
   2     4     1          0.19539   0.16797   0.18050  -0.23277  -0.10255
   3     4     1         -0.22991  -0.09067  -0.12193   0.17400   0.18697
   1     5     1         -0.05587   0.05547   0.04053  -0.04086   0.04049
   2     5     1         -0.21667   0.17500   0.12892  -0.18252   0.18867
   3     5     1          0.47154  -0.03933   0.04438   0.05633  -0.25779
   1     6     1         -0.16497   0.02880  -0.01265  -0.02245   0.13311
   2     6     1          0.12620  -0.17457  -0.12115   0.11715  -0.16035
   3     6     1          0.02964   0.37856   0.36453  -0.28278   0.09477
   1     7     6         -0.08754   0.04850   0.02704   0.04639  -0.08334
   2     7     6          0.05585   0.07270   0.06597   0.02686   0.00551
   3     7     6          0.00712   0.00644  -0.00173  -0.06085  -0.03212
   1     8     1          0.16542  -0.02989   0.01186  -0.02213   0.13374
   2     8     1         -0.12526   0.17390   0.12066   0.11643  -0.15886
   3     8     1          0.03119   0.37837   0.36466   0.28536  -0.09286
   1     9     1          0.05524  -0.05479  -0.03992  -0.04043   0.03976
   2     9     1          0.21511  -0.17516  -0.12919  -0.18350   0.18725
   3     9     1          0.47134  -0.04139   0.04264  -0.05575   0.25857
   1    10     1          0.17575  -0.13206  -0.09196  -0.13570   0.19709
   2    10     1         -0.19545  -0.16576  -0.17852  -0.23351  -0.10276
   3    10     1         -0.23152  -0.08849  -0.12039  -0.17518  -0.18823
   1    11     6          0.02381  -0.04523   0.03015   0.04779   0.08161
   2    11     6          0.02719   0.06693  -0.07194  -0.02696   0.00592
   3    11     6          0.00167  -0.00657  -0.00132  -0.05959   0.03305
   1    12     1         -0.00843   0.04996  -0.04295  -0.04127  -0.03985
   2    12     1          0.04538  -0.16299   0.14354   0.18947   0.18061
   3    12     1         -0.13442   0.04322   0.03766  -0.06509  -0.25376
   1    13     1         -0.04835   0.02772   0.01310  -0.02368  -0.13287
   2    13     1         -0.01654   0.16208  -0.13481  -0.12074  -0.15285
   3    13     1         -0.05885  -0.34559   0.39582   0.28846   0.08521
   1    14     1         -0.03593   0.12298  -0.10300  -0.14029  -0.18898
   2    14     1         -0.09998  -0.14953   0.19211   0.22835  -0.10781
   3    14     1          0.10096   0.07521  -0.12495  -0.16473   0.19414
   1    15     6         -0.02390   0.04529  -0.03050   0.04800   0.08181
   2    15     6         -0.02730  -0.06697   0.07212  -0.02645   0.00611
   3    15     6          0.00095  -0.00589  -0.00198   0.05948  -0.03294
   1    16     1          0.00876  -0.05087   0.04395  -0.04161  -0.04079
   2    16     1         -0.04643   0.16287  -0.14417   0.18779   0.18120
   3    16     1         -0.13528   0.04154   0.03914   0.06532   0.25476
   1    17     1          0.03595  -0.12327   0.10410  -0.14136  -0.18904
   2    17     1          0.09838   0.15124  -0.19385   0.22712  -0.10752
   3    17     1          0.09942   0.07827  -0.12763   0.16455  -0.19317
   1    18     1          0.04841  -0.02659  -0.01360  -0.02375  -0.13215
   2    18     1          0.01751  -0.16194   0.13489  -0.12048  -0.15441
   3    18     1         -0.05754  -0.34644   0.39666  -0.28605  -0.08649
   1    19    35          0.00000   0.00000  -0.00000  -0.00014  -0.00001
   2    19    35          0.00000   0.00000  -0.00000  -0.00000   0.00024
   3    19    35          0.00007  -0.00000  -0.00003   0.00000  -0.00000
   1    20    35          0.00000   0.00000  -0.00000  -0.00024   0.00005
   2    20    35          0.00001   0.00000   0.00000  -0.00003  -0.00240
   3    20    35         -0.00049   0.00003   0.00014  -0.00000  -0.00000
                          26        27        28        29        30
                           A         A         A         A         A
       Frequencies ---  1083.5832 1205.6815 1222.1933 1326.4488 1364.1982
    Reduced masses ---     1.5294    1.9220    3.6347    2.5905    2.8702
   Force constants ---     1.0580    1.6462    3.1989    2.6854    3.1471
    IR Intensities ---    47.3319  141.3247   63.2013    0.0081   86.0286
 Coord Atom Element:
   1     1     6          0.08491  -0.01892  -0.00008   0.00014  -0.00352
   2     1     6         -0.03573   0.14891  -0.00023  -0.00009   0.26659
   3     1     6         -0.00001   0.00081   0.29220  -0.25470  -0.00037
   1     2     6          0.08365   0.01853  -0.00021  -0.00014  -0.00367
   2     2     6          0.03590   0.14922  -0.00094   0.00026  -0.26610
   3     2     6         -0.00009   0.00050   0.29017   0.25615  -0.00001
   1     3     6         -0.06914  -0.00997   0.01040  -0.00093   0.00217
   2     3     6          0.01604  -0.09584   0.02657  -0.02410   0.08322
   3     3     6          0.05051  -0.01524  -0.12798  -0.05289   0.00333
   1     4     1          0.15101   0.08923   0.01486   0.03576  -0.10967
   2     4     1         -0.17716   0.19751   0.27714   0.29772  -0.04436
   3     4     1          0.24173  -0.16478  -0.29029  -0.25639   0.03663
   1     5     1          0.03168   0.05020   0.00849   0.06576  -0.09850
   2     5     1          0.13155   0.13622   0.09367   0.14810  -0.27710
   3     5     1         -0.27305   0.16243   0.08152  -0.05884  -0.16845
   1     6     1          0.12799  -0.07826  -0.07322  -0.08196   0.20615
   2     6     1         -0.11865  -0.08385   0.07874   0.05751  -0.05344
   3     6     1         -0.01363   0.30771   0.01413  -0.14560  -0.18132
   1     7     6         -0.06905  -0.00997  -0.01035   0.00093   0.00225
   2     7     6          0.01614  -0.09614  -0.02588   0.02387   0.08293
   3     7     6         -0.05054   0.01470  -0.12841  -0.05294  -0.00364
   1     8     1          0.12878  -0.07743   0.07485   0.08171   0.20364
   2     8     1         -0.11785  -0.08468  -0.07876  -0.05701  -0.05052
   3     8     1          0.01541  -0.30927   0.01669  -0.14678   0.18330
   1     9     1          0.03117   0.04980  -0.00856  -0.06506  -0.09600
   2     9     1          0.13004   0.13774  -0.09584  -0.14823  -0.27631
   3     9     1          0.27368  -0.16123   0.08319  -0.05959   0.16966
   1    10     1          0.15075   0.08921  -0.01505  -0.03494  -0.11144
   2    10     1         -0.17679   0.19643  -0.27782  -0.29693  -0.04392
   3    10     1         -0.24274   0.16394  -0.29210  -0.25656  -0.03576
   1    11     6         -0.06992   0.01001  -0.01080  -0.00097   0.00237
   2    11     6         -0.01627  -0.09580   0.02668   0.02367  -0.08250
   3    11     6         -0.05090  -0.01530  -0.12897   0.05296  -0.00434
   1    12     1          0.03319  -0.04682  -0.00685   0.06308  -0.08938
   2    12     1         -0.12953   0.14071   0.09789  -0.14875   0.27506
   3    12     1          0.27453   0.15881   0.08127   0.05450   0.17267
   1    13     1          0.13183   0.07892   0.07456  -0.07817   0.20187
   2    13     1          0.11665  -0.08736   0.07748  -0.05399   0.04429
   3    13     1          0.01820   0.31072   0.01496   0.14615   0.18570
   1    14     1          0.14820  -0.09199  -0.01888   0.04015  -0.11548
   2    14     1          0.17902   0.19591   0.27742  -0.29434   0.04225
   3    14     1         -0.24744  -0.16120  -0.28995   0.25213  -0.03148
   1    15     6         -0.07000   0.01010   0.01069   0.00094   0.00229
   2    15     6         -0.01632  -0.09551  -0.02576  -0.02378  -0.08265
   3    15     6          0.05090   0.01465  -0.12920   0.05299   0.00434
   1    16     1          0.03410  -0.04694   0.00760  -0.06406  -0.09212
   2    16     1         -0.13053   0.13763  -0.09889   0.14872   0.27579
   3    16     1         -0.27568  -0.15975   0.08332   0.05424  -0.17176
   1    17     1          0.14792  -0.09200   0.02092  -0.04098  -0.11374
   2    17     1          0.17875   0.19351  -0.27915   0.29413   0.04217
   3    17     1          0.24672   0.16006  -0.29168   0.25283   0.03297
   1    18     1          0.13081   0.07899  -0.07474   0.07901   0.20430
   2    18     1          0.11812  -0.08589  -0.07715   0.05510   0.04838
   3    18     1         -0.01587  -0.30899   0.01737   0.14543  -0.18396
   1    19    35          0.00026   0.00001   0.00000   0.00000  -0.00036
   2    19    35         -0.00000  -0.00017   0.00000  -0.00000  -0.00001
   3    19    35         -0.00000  -0.00000  -0.00046   0.00001   0.00000
   1    20    35          0.00047  -0.00001   0.00000  -0.00000   0.00020
   2    20    35         -0.00001   0.00042  -0.00000   0.00000   0.00001
   3    20    35         -0.00000   0.00000   0.00001  -0.00001  -0.00000
                          31        32        33        34        35
                           A         A         A         A         A
       Frequencies ---  1405.4906 1406.5654 1416.0851 1426.5508 1453.4353
    Reduced masses ---     1.1547    1.2518    1.1692    1.1512    1.0404
   Force constants ---     1.3439    1.4592    1.3814    1.3804    1.2949
    IR Intensities ---    89.2577   13.3023   97.6535   44.5907    0.0020
 Coord Atom Element:
   1     1     6         -0.00000   0.00006   0.01488   0.01158  -0.00022
   2     1     6         -0.00088  -0.00015   0.00452   0.03661  -0.00003
   3     1     6          0.02402  -0.04878   0.00051  -0.00007  -0.01126
   1     2     6          0.00011  -0.00006  -0.01408   0.01170   0.00014
   2     2     6          0.00074   0.00041   0.00559  -0.03777   0.00007
   3     2     6         -0.01327   0.05421  -0.00043   0.00002   0.01098
   1     3     6         -0.00781  -0.02370  -0.01089   0.01420   0.00689
   2     3     6          0.02298   0.04438   0.03495  -0.02753   0.01380
   3     3     6         -0.01498  -0.06541  -0.04439   0.04089   0.02110
   1     4     1          0.04771   0.22411   0.12969  -0.15369  -0.20377
   2     4     1         -0.04987  -0.06897  -0.10979   0.08839   0.12546
   3     4     1          0.04871   0.08198   0.09229  -0.08672  -0.12384
   1     5     1         -0.08525  -0.17807  -0.12882   0.13373  -0.06226
   2     5     1         -0.15680  -0.25493  -0.18785   0.19784  -0.26359
   3     5     1          0.09207   0.33089   0.24859  -0.25546  -0.22495
   1     6     1          0.14793   0.28952   0.18896  -0.21109   0.17679
   2     6     1         -0.11074  -0.22121  -0.14440   0.16996  -0.12868
   3     6     1          0.07971   0.13490   0.15261  -0.15137   0.06528
   1     7     6          0.00793   0.02380  -0.01124   0.01454  -0.00667
   2     7     6         -0.02360  -0.04371   0.03496  -0.02763  -0.01393
   3     7     6         -0.01541  -0.06468   0.04531  -0.04126   0.02084
   1     8     1         -0.15037  -0.28771   0.18954  -0.21375  -0.17789
   2     8     1          0.11103   0.21744  -0.14348   0.17036   0.12825
   3     8     1          0.08025   0.13053  -0.15307   0.15171   0.06450
   1     9     1          0.08604   0.17530  -0.12876   0.13418   0.06154
   2     9     1          0.15926   0.25151  -0.18638   0.19889   0.26427
   3     9     1          0.09377   0.32746  -0.25359   0.25803  -0.22166
   1    10     1         -0.04864  -0.22389   0.13393  -0.15640   0.20154
   2    10     1          0.05044   0.06534  -0.11045   0.08803  -0.12476
   3    10     1          0.04968   0.08099  -0.09407   0.08805  -0.12380
   1    11     6          0.02171  -0.01147   0.01210   0.01423   0.00544
   2    11     6          0.04510  -0.01450   0.03737   0.02541  -0.01417
   3    11     6         -0.05336   0.03638  -0.04831  -0.03921  -0.02102
   1    12     1          0.17724  -0.06601   0.13876   0.12770  -0.05957
   2    12     1         -0.27623   0.06459  -0.19898  -0.18383   0.26954
   3    12     1          0.28616  -0.17272   0.26937   0.24974   0.21760
   1    13     1         -0.29555   0.09812  -0.20250  -0.20139   0.18600
   2    13     1         -0.21845   0.07530  -0.15136  -0.15879   0.13181
   3    13     1          0.14149  -0.03874   0.16169   0.13841  -0.06071
   1    14     1         -0.18987   0.13107  -0.14697  -0.15827  -0.19373
   2    14     1         -0.07878   0.01265  -0.11717  -0.08174  -0.12966
   3    14     1          0.09469  -0.02687   0.10382   0.08798   0.12730
   1    15     6         -0.02172   0.01150   0.01136   0.01369  -0.00596
   2    15     6         -0.04603   0.01531   0.03653   0.02529   0.01387
   3    15     6         -0.05467   0.03707   0.04643   0.03854  -0.02149
   1    16     1         -0.18210   0.06847   0.13614   0.12739   0.05947
   2    16     1          0.28133  -0.06841  -0.19577  -0.18401  -0.26777
   3    16     1          0.29153  -0.17524  -0.25872  -0.24374   0.22292
   1    17     1          0.19042  -0.13130  -0.13880  -0.15232   0.19875
   2    17     1          0.08405  -0.01556  -0.11397  -0.08061   0.13057
   3    17     1          0.09701  -0.02813  -0.09985  -0.08513   0.12886
   1    18     1          0.29951  -0.10114  -0.19727  -0.19920  -0.18211
   2    18     1          0.22469  -0.07835  -0.14902  -0.15889  -0.13067
   3    18     1          0.14907  -0.04185  -0.15853  -0.13889  -0.06161
   1    19    35          0.00000   0.00000   0.00001   0.00020  -0.00000
   2    19    35          0.00000  -0.00000  -0.00017   0.00001  -0.00000
   3    19    35          0.00008   0.00003  -0.00000   0.00000   0.00001
   1    20    35          0.00000  -0.00000  -0.00001  -0.00057  -0.00000
   2    20    35          0.00000  -0.00000  -0.00013   0.00001  -0.00000
   3    20    35          0.00012   0.00005   0.00000   0.00000  -0.00000
                          36        37        38        39        40
                           A         A         A         A         A
       Frequencies ---  1467.3746 1475.8003 1480.8708 1502.6284 1504.8211
    Reduced masses ---     1.0411    1.2283    1.0567    1.0846    1.1008
   Force constants ---     1.3207    1.5761    1.3653    1.4429    1.4687
    IR Intensities ---    18.8795    0.0047   46.2282    0.4470    0.0481
 Coord Atom Element:
   1     1     6         -0.00008   0.00015   0.00723  -0.02182  -0.01333
   2     1     6         -0.00031  -0.00049  -0.03303  -0.00260   0.06054
   3     1     6         -0.01233  -0.05826   0.00027   0.00028  -0.00012
   1     2     6         -0.00011  -0.00007  -0.00780   0.01797  -0.01895
   2     2     6          0.00027  -0.00000  -0.03125  -0.01934  -0.05773
   3     2     6         -0.01091   0.05817  -0.00017  -0.00019   0.00014
   1     3     6         -0.01976   0.02401  -0.00380   0.01797  -0.01480
   2     3     6         -0.01525   0.01638  -0.00584   0.01384  -0.00692
   3     3     6         -0.00887  -0.05018  -0.02260  -0.03013  -0.00247
   1     4     1          0.31174  -0.22649   0.20806  -0.18414   0.31502
   2     4     1         -0.02302  -0.22957  -0.12186  -0.23979   0.02201
   3     4     1          0.10451   0.03519   0.12371   0.07704   0.08311
   1     5     1          0.02821   0.01593   0.05414   0.03515   0.02279
   2     5     1          0.19881   0.01531   0.24274   0.06805   0.16744
   3     5     1          0.24915  -0.03114   0.23210  -0.03967   0.23303
   1     6     1         -0.06587  -0.13403  -0.16563  -0.15433  -0.04786
   2     6     1          0.05165   0.07747   0.13378   0.09665   0.06479
   3     6     1         -0.17998   0.34326  -0.10174   0.28631  -0.29249
   1     7     6          0.01953  -0.02399  -0.00346   0.01790  -0.01470
   2     7     6          0.01542  -0.01648  -0.00588   0.01404  -0.00721
   3     7     6         -0.00871  -0.04990   0.02309   0.02988   0.00226
   1     8     1          0.06800   0.13270  -0.16889  -0.15199  -0.04911
   2     8     1         -0.05249  -0.07660   0.13477   0.09477   0.06484
   3     8     1         -0.17965   0.34266   0.09871  -0.28512   0.29322
   1     9     1         -0.02826  -0.01537   0.05378   0.03405   0.02251
   2     9     1         -0.20115  -0.01277   0.24532   0.06517   0.16919
   3     9     1          0.24689  -0.03398  -0.23191   0.04145  -0.23267
   1    10     1         -0.30987   0.22775   0.20654  -0.18413   0.31489
   2    10     1          0.02247   0.22887  -0.12418  -0.23790   0.02360
   3    10     1          0.10482   0.03419  -0.12523  -0.07586  -0.08323
   1    11     6          0.01871   0.02406   0.00252  -0.02093  -0.00902
   2    11     6         -0.01597  -0.01710  -0.00619   0.01595   0.00377
   3    11     6         -0.00838   0.04903  -0.02296  -0.02844   0.00969
   1    12     1         -0.02644   0.01300  -0.05250  -0.02575   0.02791
   2    12     1          0.20635  -0.00473   0.25270   0.01588  -0.18198
   3    12     1          0.24349   0.03767   0.22826  -0.09569  -0.21076
   1    13     1          0.07275  -0.12936   0.17723   0.13391  -0.08787
   2    13     1          0.05654  -0.06948   0.13945   0.06995  -0.08839
   3    13     1         -0.17922  -0.34060  -0.09980   0.34834   0.21005
   1    14     1         -0.30478  -0.22800  -0.20210   0.25432   0.25266
   2    14     1         -0.02352   0.22577  -0.12646  -0.23820   0.03669
   3    14     1          0.10968  -0.02868   0.12843   0.05024  -0.10208
   1    15     6         -0.01900  -0.02402   0.00306  -0.02106  -0.00943
   2    15     6          0.01565   0.01684  -0.00612   0.01541   0.00358
   3    15     6         -0.00864   0.04937   0.02245   0.02812  -0.00946
   1    16     1          0.02640  -0.01384  -0.05285  -0.02683   0.02813
   2    16     1         -0.20379   0.00907   0.25000   0.01805  -0.18005
   3    16     1          0.24522   0.03299  -0.22868   0.09620   0.21103
   1    17     1          0.30647   0.22463  -0.20485   0.25561   0.25499
   2    17     1          0.02524  -0.22583  -0.12448  -0.23599   0.03636
   3    17     1          0.10990  -0.03125  -0.12809  -0.05030   0.10191
   1    18     1         -0.06997   0.13120   0.17235   0.13572  -0.08432
   2    18     1         -0.05480   0.07262   0.13772   0.07287  -0.08656
   3    18     1         -0.17783  -0.33815   0.10329  -0.34725  -0.21184
   1    19    35         -0.00000   0.00000   0.00001  -0.00001  -0.00005
   2    19    35          0.00000  -0.00000   0.00007   0.00007  -0.00001
   3    19    35         -0.00008  -0.00000  -0.00000   0.00000   0.00000
   1    20    35          0.00000   0.00000   0.00001  -0.00003  -0.00014
   2    20    35         -0.00000   0.00000   0.00009   0.00001  -0.00000
   3    20    35         -0.00003  -0.00001   0.00000   0.00000  -0.00000
                          41        42        43        44        45
                           A         A         A         A         A
       Frequencies ---  1518.1227 1552.8291 3045.6809 3047.9236 3051.2936
    Reduced masses ---     1.1117    1.1580    1.0535    1.0546    1.0555
   Force constants ---     1.5096    1.6451    5.7578    5.7720    5.7898
    IR Intensities ---    32.4599   37.1372    2.5927    8.6864    6.7549
 Coord Atom Element:
   1     1     6          0.00009   0.01116  -0.00008  -0.00004  -0.00151
   2     1     6          0.00073   0.05103  -0.00007  -0.00004  -0.00121
   3     1     6          0.00928  -0.00020   0.00104   0.00056  -0.00004
   1     2     6          0.00001   0.01071   0.00001  -0.00002   0.00072
   2     2     6         -0.00063  -0.05149   0.00003   0.00003  -0.00003
   3     2     6          0.00854  -0.00007  -0.00011   0.00112  -0.00001
   1     3     6          0.01634   0.01440  -0.00941   0.03372   0.01682
   2     3     6          0.01130   0.01672   0.00660  -0.02358  -0.01100
   3     3     6         -0.04413  -0.03894  -0.00529   0.01424   0.00840
   1     4     1         -0.09971  -0.09716  -0.01641   0.04376   0.02489
   2     4     1         -0.31273  -0.31285   0.03007  -0.08041  -0.04555
   3     4     1          0.14132   0.15038   0.04543  -0.11417  -0.06878
   1     5     1          0.02991   0.03562   0.17185  -0.58002  -0.28903
   2     5     1          0.10295   0.11270  -0.06391   0.21702   0.10884
   3     5     1          0.08182   0.05943   0.02445  -0.08277  -0.04076
   1     6     1         -0.16861  -0.17088  -0.03940   0.12304   0.05830
   2     6     1          0.10821   0.11780  -0.04747   0.14619   0.06965
   3     6     1          0.25094   0.22520  -0.00716   0.02229   0.01135
   1     7     6         -0.01620   0.01475   0.01011  -0.03440   0.01703
   2     7     6         -0.01107   0.01706  -0.00692   0.02367  -0.01095
   3     7     6         -0.04361   0.03982  -0.00566   0.01441  -0.00834
   1     8     1          0.16632  -0.17369   0.04116  -0.12278   0.05741
   2     8     1         -0.10612   0.11907   0.04993  -0.14697   0.06900
   3     8     1          0.24848  -0.22972  -0.00747   0.02211  -0.01109
   1     9     1         -0.02876   0.03534  -0.18325   0.58858  -0.29045
   2     9     1         -0.10061   0.11369   0.06732  -0.21745   0.10802
   3     9     1          0.07950  -0.06035   0.02634  -0.08486   0.04141
   1    10     1          0.09910  -0.09886   0.01759  -0.04431   0.02474
   2    10     1          0.30918  -0.31954  -0.03190   0.08074  -0.04485
   3    10     1          0.13997  -0.15418   0.04818  -0.11408   0.06734
   1    11     6         -0.01716   0.01549  -0.03557  -0.01206  -0.03112
   2    11     6          0.01161  -0.01750  -0.02359  -0.00799  -0.01931
   3    11     6         -0.04303   0.03913   0.01593   0.00396   0.01396
   1    12     1         -0.02636   0.03327   0.60942   0.19562   0.51622
   2    12     1          0.09542  -0.10975   0.21937   0.07080   0.18739
   3    12     1          0.07235  -0.05443  -0.09513  -0.03060  -0.07975
   1    13     1          0.16865  -0.17616  -0.12336  -0.03645  -0.09465
   2    13     1          0.10327  -0.11641   0.15060   0.04381   0.11560
   3    13     1          0.25130  -0.23147   0.02406   0.00709   0.01941
   1    14     1          0.10858  -0.10692  -0.04974  -0.01180  -0.04143
   2    14     1         -0.31067   0.32127  -0.08559  -0.02084  -0.07113
   3    14     1          0.13522  -0.15023  -0.12309  -0.02685  -0.10458
   1    15     6          0.01746   0.01513   0.03219   0.01063  -0.03371
   2    15     6         -0.01199  -0.01702   0.02206   0.00727  -0.02168
   3    15     6         -0.04398  -0.03833   0.01460   0.00341  -0.01525
   1    16     1          0.02763   0.03385  -0.55766  -0.17339   0.56520
   2    16     1         -0.09811  -0.10952  -0.20394  -0.06377   0.20842
   3    16     1          0.07440   0.05382  -0.08671  -0.02704   0.08698
   1    17     1         -0.11111  -0.10488   0.04545   0.01013  -0.04513
   2    17     1          0.31651   0.31457   0.07970   0.01823  -0.07905
   3    17     1          0.13892   0.14833  -0.11402  -0.02308   0.11539
   1    18     1         -0.17156  -0.17347   0.11728   0.03343  -0.10818
   2    18     1         -0.10694  -0.11662  -0.14169  -0.03971   0.13089
   3    18     1          0.25710   0.22661   0.02239   0.00636  -0.02174
   1    19    35          0.00000   0.00005  -0.00000  -0.00000  -0.00002
   2    19    35          0.00000  -0.00001   0.00000   0.00000   0.00003
   3    19    35         -0.00006  -0.00000  -0.00001  -0.00002   0.00000
   1    20    35         -0.00000  -0.00015   0.00000   0.00000   0.00002
   2    20    35         -0.00000   0.00000   0.00000   0.00000   0.00006
   3    20    35          0.00002  -0.00000  -0.00001  -0.00002   0.00000
                          46        47        48        49        50
                           A         A         A         A         A
       Frequencies ---  3054.8669 3135.1112 3138.2617 3146.3455 3150.7895
    Reduced masses ---     1.0572    1.0824    1.0835    1.0791    1.0801
   Force constants ---     5.8131    6.2683    6.2873    6.2942    6.3179
    IR Intensities ---     9.4463    0.0038    0.8370    3.0287    5.6298
 Coord Atom Element:
   1     1     6         -0.00098   0.00002  -0.00005   0.00035   0.00117
   2     1     6         -0.00180   0.00003  -0.00003   0.00084   0.00060
   3     1     6         -0.00001   0.00118  -0.00095  -0.00006  -0.00006
   1     2     6         -0.00162  -0.00001  -0.00005  -0.00045   0.00116
   2     2     6          0.00215   0.00003   0.00002   0.00087  -0.00053
   3     2     6         -0.00001  -0.00108  -0.00101   0.00005  -0.00003
   1     3     6         -0.03304  -0.03710  -0.03892  -0.03647   0.03316
   2     3     6          0.02191  -0.01578  -0.02107  -0.01339   0.01754
[...]
 23645,-0.00014454,0.00008603,0.00005959,0.00022236,-0.00258815,-0.0001
 0057,0.00045277,-0.05325993,-0.01480380,-0.02445548,0.05791098,-0.0009
 6714,0.00034572,0.00070919,-0.00343276,0.00055913,0.00756211,-0.000101
 24,-0.00023083,0.00020842,-0.00002045,0.00013109,0.00016033,0.00010083
 ,0.00007997,-0.00011187,-0.00024062,0.00067572,0.00029762,-0.01001687,
 -0.13896347,-0.13807032,0.01762947,0.14974468,0.00281063,-0.00174687,-
 0.00101300,0.00313553,-0.00808279,-0.01881436,-0.00223096,0.00042262,-
 0.00062801,-0.00023852,0.00046808,0.00018556,-0.00032471,0.00010478,0.
 00024551,-0.00039513,0.00025086,0.00190889,-0.02308659,-0.13466561,-0.
 22512980,0.02009059,0.14465269,0.24319724,-0.00115818,-0.00060521,0.00
 130006,-0.00229479,-0.02670387,0.00689953,0.00006807,0.00245716,-0.001
 35145,0.00022892,0.00044864,0.00028079,-0.00128486,-0.00023639,0.00011
 465,0.00010368,-0.00009905,0.00032511,-0.04941891,-0.02285570,0.009244
 68,-0.00052326,-0.00228785,0.00054892,0.05021896,-0.00021156,-0.000912
 50,-0.00214596,-0.00469572,-0.00226692,0.00535918,0.00044975,-0.000294
 85,0.00036492,-0.00025120,0.00019668,0.00000526,0.00008663,0.00037863,
 -0.00026876,-0.00005204,0.00006892,0.00013260,-0.01721960,-0.27150928,
 0.08007519,-0.00147397,-0.01742483,0.00662830,0.02386828,0.29813615,0.
 00112759,-0.00018294,-0.00164566,0.00502921,0.01900338,-0.00939081,-0.
 00113268,0.00039700,-0.00046742,0.00005133,-0.00036589,-0.00019113,-0.
 00006456,-0.00026925,0.00038953,-0.00021375,-0.00012717,0.00024903,0.0
 0606249,0.08404303,-0.06900711,-0.00288868,-0.02461087,0.01001479,-0.0
 1042260,-0.09157461,0.07501288,-0.00037857,-0.00004329,-0.00128360,-0.
 02195788,0.00513795,-0.01462475,-0.00275953,-0.00081349,0.00429186,-0.
 00096772,0.00019933,-0.00081608,0.00024754,0.00025565,-0.00002872,0.00
 026826,0.00003646,0.00019317,-0.24645252,0.05514247,-0.11947393,0.0000
 8360,-0.00039999,-0.00009630,0.00413407,-0.00043608,0.00211622,0.26382
 253,0.00044425,0.00018601,-0.00012179,-0.00643795,-0.00283844,-0.00000
 731,-0.00096358,0.00135121,0.00039809,-0.00034015,0.00061302,0.0001743
 2,-0.00044153,0.00017970,-0.00036377,0.00026082,0.00015793,0.00047814,
 0.05866234,-0.06038290,0.03033003,-0.01683952,0.00552960,-0.00823353,0
 .02527440,-0.00541914,0.01493872,-0.05870697,0.05974276,-0.00083038,0.
 00014296,0.00039222,0.01651818,-0.00622675,0.01401262,0.00261315,0.001
 23005,-0.00235522,0.00082877,0.00024764,0.00076116,-0.00029004,-0.0000
 2462,-0.00018823,0.00013089,0.00017368,0.00017911,-0.12400319,0.031637
 66,-0.12688376,-0.01920748,0.00821402,-0.01064701,-0.00827045,0.001288
 56,-0.00555231,0.13137122,-0.03720863,0.13922630,-0.18910063,0.0006964
 6,-0.05235076,0.00672718,-0.00061362,-0.00502862,-0.00031242,-0.000000
 10,0.00230396,0.00009019,0.00006507,-0.00004355,0.00007710,-0.00013433
 ,0.00005865,0.00039516,-0.00000402,0.00036813,-0.00023607,0.00046403,-
 0.00040365,-0.00050566,-0.00007241,0.00012256,0.00015295,0.00000584,0.
 00015730,0.00028261,0.00000799,0.00167669,0.56092746,0.01077023,-0.062
 71253,0.01200002,0.00367812,0.00208926,-0.00065385,-0.00041278,0.00447
 745,0.00035422,0.00004482,-0.00018293,-0.00000546,-0.00083690,-0.00012
 421,-0.00058416,0.00063018,-0.00002421,0.00063517,0.00045769,0.0005712
 1,0.00028379,0.00029241,-0.00015153,0.00018648,-0.00009112,-0.00005683
 ,0.00008052,0.00032381,-0.00039683,-0.00014474,-0.02098382,0.52649200,
 -0.04751585,0.00179670,-0.11499183,-0.02563746,-0.00565960,-0.01791220
 ,0.00233997,0.00000082,-0.00306999,0.00004791,-0.00015320,0.00008506,-
 0.00035610,-0.00009733,-0.00026896,-0.00095778,0.00005311,-0.00050542,
 0.00028245,-0.00030759,-0.00072904,-0.00053064,0.00022909,0.00005449,-
 0.00010659,0.00019022,0.00006005,-0.00109971,0.00028874,-0.00301078,-0
 .07111182,-0.02309723,0.56037549,-0.00290599,-0.02701910,-0.00760541,-
 0.00119124,-0.00055177,-0.00133006,0.00000197,0.00085262,-0.00033080,0
 .00003083,-0.00004233,0.00000795,-0.00017830,-0.00004528,-0.00014820,0
 .00002573,0.00000402,0.00004744,0.00016149,-0.00010666,0.00008465,0.00
 005950,-0.00002699,0.00009512,0.00008845,-0.00000320,-0.00000552,0.000
 05061,0.00001145,-0.00043199,-0.05017426,-0.02730850,-0.01121035,0.051
 09052,-0.00480860,-0.00146911,-0.00510407,-0.00013642,-0.00093483,0.00
 216631,0.00014199,-0.00006541,0.00007630,-0.00000297,-0.00001215,0.000
 03774,0.00002422,0.00011639,0.00001877,-0.00001667,0.00003417,-0.00002
 641,-0.00000385,-0.00005104,-0.00019680,-0.00003209,0.00000876,-0.0000
 1658,-0.00000429,0.00001617,-0.00004139,-0.00006868,0.00004548,0.00008
 493,-0.02138959,-0.26743779,-0.08290470,0.02871536,0.29363527,-0.00539
 045,-0.01822329,-0.00951408,-0.00114630,0.00022381,-0.00153689,0.00001
 179,0.00059629,-0.00025149,0.00001161,-0.00000718,0.00002008,-0.000146
 56,-0.00002399,-0.00011365,0.00003354,0.00003462,0.00002029,-0.0001517
 2,-0.00006202,0.00006809,-0.00007133,0.00006060,-0.00008052,-0.0000001
 6,0.00004006,-0.00006514,-0.00000345,-0.00009244,0.00033896,-0.0079725
 5,-0.08680573,-0.07167829,0.01262435,0.09468321,0.07789908,0.00173134,
 0.01771307,-0.02371897,-0.00447465,-0.00065310,-0.00127354,0.00044597,
 -0.00056992,-0.00097192,0.00003250,-0.00000475,0.00004323,0.00002047,0
 .00001626,0.00003434,-0.00027051,-0.00001643,-0.00025202,-0.00051329,0
 .00025778,0.00055006,0.00021696,-0.00008935,0.00003759,0.00006632,-0.0
 0003227,0.00007480,0.00047866,-0.00009242,-0.00004433,-0.05254670,-0.0
 1342143,0.02224969,-0.00051109,-0.00188588,0.00339422,0.05748131,-0.00
 356753,0.00038330,-0.00685004,-0.00087634,0.00038910,-0.00065436,0.000
 02841,-0.00005164,-0.00011331,0.00002977,0.00001975,0.00000865,-0.0000
 0684,0.00003404,-0.00003371,0.00000304,0.00000273,-0.00005650,-0.00006
 715,-0.00013793,-0.00024416,-0.00009214,0.00008976,-0.00005727,-0.0000
 3078,0.00000898,-0.00006225,-0.00017445,0.00006372,0.00012694,-0.00841
 027,-0.14384440,0.13963717,-0.00195925,-0.01771191,0.02410555,0.016035
 32,0.15469225,-0.00353645,0.00810717,-0.01819016,-0.00273534,0.0018360
 7,-0.00087242,0.00041742,-0.00058459,-0.00051802,-0.00004883,0.0000138
 9,0.00002519,0.00004278,0.00002942,0.00001714,-0.00025362,0.00004002,-
 0.00012143,-0.00010776,-0.00018322,0.00003515,-0.00004398,0.00006018,-
 0.00009164,-0.00010508,0.00001588,-0.00008591,-0.00029044,0.00004555,0
 .00010952,0.02077766,0.13635612,-0.22144356,-0.00044440,-0.00709666,0.
 01027402,-0.01748255,-0.14650749,0.23885991,-0.02200632,0.00508228,0.0
 1541210,-0.00033755,-0.00007719,0.00129432,0.00009697,-0.00002773,0.00
 003960,0.00006827,0.00002402,0.00010632,0.00003007,0.00000584,0.000009
 58,0.00003280,-0.00002754,-0.00004907,0.00025124,0.00026042,0.00101074
 ,0.00047545,-0.00017359,0.00027351,0.00007556,-0.00007302,0.00002196,0
 .00263901,-0.00026532,-0.00026219,-0.23978434,0.05427286,0.12259452,0.
 00453661,-0.00053882,-0.00250341,0.00030438,-0.00051378,-0.00006811,0.
 25664055,-0.00608656,-0.00296095,-0.00047256,0.00043251,0.00020473,0.0
 0011565,-0.00004672,-0.00020102,0.00015736,-0.00002300,-0.00000469,-0.
 00000998,0.00004770,-0.00000739,0.00000802,0.00000515,0.00001933,-0.00
 001862,0.00010482,-0.00038449,-0.00028264,-0.00011486,0.00007665,-0.00
 006103,-0.00001464,0.00005098,0.00006791,-0.00019635,0.00151373,0.0002
 5293,0.05786488,-0.06016764,-0.03143719,0.02466238,-0.00544357,-0.0154
 7010,-0.01693165,0.00572253,0.00887943,-0.05757015,0.05965677,-0.01573
 681,0.00596690,0.01415944,0.00085294,-0.00019287,0.00033119,-0.0000451
 4,0.00000284,0.00008579,0.00010544,0.00001591,0.00006015,0.00000965,-0
 .00003941,0.00001962,0.00004549,-0.00000741,0.00002315,-0.00172546,0.0
 0017976,-0.00287469,0.00003482,-0.00011832,0.00009491,0.00043429,-0.00
 007837,0.00033847,-0.00013880,0.00027508,-0.00624084,0.12702245,-0.032
 77283,-0.13332383,0.00853695,-0.00139349,-0.00600529,0.01852544,-0.008
 12452,-0.01101536,-0.13434146,0.03810724,0.14624976,-0.18482838,-0.011
 51306,0.05263094,0.00760701,0.00094941,0.00448988,-0.00009405,-0.00056
 052,0.00034598,0.00028503,0.00005150,-0.00171167,0.00013685,0.00001436
 ,-0.00016364,-0.00047198,0.00004822,-0.00012849,-0.00040660,-0.0004278
 7,-0.00238892,0.00046040,0.00004696,-0.00044371,-0.00000326,0.00014102
 ,-0.00000958,0.00009827,-0.00004479,0.00004204,-0.03041126,0.00139058,
 0.01161334,0.00011343,0.00037790,0.00109819,-0.00034618,-0.00020340,0.
 00227028,-0.00288062,-0.00093587,-0.00259532,0.55982171,-0.02124530,-0
 .06481530,0.01692522,-0.00321817,0.00191352,-0.00014247,-0.00054244,0.
 00050494,0.00031055,-0.00026277,-0.00041325,-0.00028019,0.00010606,-0.
 00004813,0.00006670,-0.00031238,-0.00016826,0.00017694,-0.00000974,0.0
 0447554,0.00014592,-0.00057515,-0.00007194,0.00060706,0.00083473,-0.00
 003633,-0.00060756,-0.00002277,-0.00019163,-0.00000142,-0.00473815,0.0
 0844460,0.00643803,0.00250049,-0.00032388,-0.00044007,0.00011110,-0.00
 021593,-0.00042974,-0.00070933,0.00136630,-0.00114486,0.02284734,0.530
 76784,0.04847098,0.00622304,-0.11699047,0.02544970,-0.00341377,-0.0184
 7871,-0.00029213,-0.00028397,-0.00053830,0.00098595,0.00038534,-0.0029
 3436,0.00008826,0.00019421,0.00005641,0.00051276,0.00026928,0.00005064
 ,-0.00237534,-0.00019854,-0.00297737,0.00093156,0.00013498,-0.00051280
 ,0.00035350,-0.00006720,-0.00027357,-0.00003555,-0.00015712,0.00008134
 ,-0.01113185,0.00542048,0.01606161,0.00145237,-0.00039309,-0.00055777,
 -0.00046863,-0.00021126,-0.00065444,-0.00428104,-0.00025269,-0.0022562
 8,0.07303729,-0.01691383,0.55656173,-0.00528142,0.02621756,0.00804073,
 -0.00122701,0.00053180,0.00112236,0.00014556,0.00011793,-0.00007112,0.
 00005850,-0.00001001,0.00042343,0.00008711,0.00001051,0.00000510,0.000
 05504,0.00003308,-0.00009693,0.00009583,-0.00082553,0.00032232,0.00002
 098,-0.00000481,-0.00004332,-0.00017170,0.00001887,0.00014743,0.000026
 87,0.00004621,-0.00001086,0.00032746,-0.00246842,-0.00142705,-0.001248
 03,0.00008225,0.00010173,0.00008467,0.00009228,0.00033366,0.00023615,-
 0.00044344,0.00028130,-0.05529077,0.04367938,0.01816248,0.05693740,0.0
 0427268,0.00136298,-0.00442501,0.00015164,-0.00089439,0.00225867,0.000
 01582,-0.00004034,-0.00019856,0.00007199,0.00005125,0.00011727,0.00000
 975,0.00002045,-0.00003817,0.00003554,0.00001467,-0.00002447,-0.000127
 11,-0.00015375,0.00011009,0.00001574,0.00003502,-0.00003071,-0.0000498
 6,0.00011554,0.00003279,0.00000755,-0.00000801,0.00003705,-0.00033154,
 -0.00056107,-0.00049470,-0.00021488,0.00034893,0.00025948,0.00006114,0
 .00008089,-0.00011101,0.00026545,0.00015743,0.00003092,0.03792757,-0.2
 6102538,-0.08343981,-0.04703195,0.28616033,0.00686451,-0.01818723,-0.0
 0996203,0.00113178,0.00032476,-0.00157783,0.00015458,-0.00005482,0.000
 06098,0.00002040,-0.00008815,0.00032793,-0.00000514,0.00003658,-0.0000
 6398,0.00006430,0.00006531,-0.00008083,-0.00007428,0.00060672,-0.00026
 016,-0.00003473,0.00003263,0.00002009,0.00014921,-0.00001179,-0.000119
 86,-0.00001099,-0.00000915,0.00002092,-0.00108433,-0.00049924,-0.00048
 604,-0.00008428,0.00025402,0.00039024,-0.00021600,0.00010241,0.0002465
 3,0.00003753,0.00037432,-0.00018273,0.01524332,-0.08769579,-0.07315162
 ,-0.02052920,0.09527135,0.07964699,-0.02201230,-0.00655654,-0.01460432
 ,-0.00033522,0.00002985,-0.00128475,0.00029107,-0.00019282,-0.00103460
 ,0.00263588,0.00036281,0.00007002,0.00005993,0.00007208,-0.00002363,0.
 00043677,0.00020102,-0.00027100,0.00008744,0.00004995,-0.00005514,0.00
 003207,0.00002859,0.00004952,0.00003343,-0.00000268,-0.00001084,0.0000
 6320,-0.00001718,-0.00010567,-0.00285128,0.00031957,0.00428905,0.00020
 467,-0.00026069,-0.00007535,0.00029273,-0.00003778,0.00024498,-0.00096
 424,-0.00033176,-0.00078674,-0.23386183,-0.06916294,-0.11770086,0.0064
 4410,0.00151272,0.00358182,0.25076471,0.00425004,-0.00302704,-0.001931
 00,-0.00046874,0.00016314,0.00000471,-0.00005357,-0.00041369,-0.000360
 93,0.00030039,0.00157385,0.00023766,0.00001859,0.00005907,0.00006477,0
 .00014271,0.00010347,-0.00008679,0.00007393,-0.00018974,0.00015011,-0.
 00000423,0.00002102,-0.00001386,-0.00004293,-0.00001186,0.00000772,0.0
 0002921,-0.00000415,-0.00002007,0.00053636,0.00150362,0.00014464,0.000
 46741,0.00017566,0.00035673,-0.00024353,0.00014950,-0.00046336,0.00018
 023,0.00061101,-0.00026646,-0.07268178,-0.07084131,-0.04016735,-0.0239
 0538,-0.00735421,-0.01469557,0.07406189,0.07061227,0.01602100,0.007375
 85,0.01415800,-0.00080918,-0.00025844,0.00037104,0.00163328,0.00033372
 ,-0.00287132,-0.00008309,0.00025037,-0.00611794,-0.00041665,-0.0001148
 3,0.00034605,-0.00003489,-0.00012647,0.00010370,0.00004319,0.00000801,
 0.00008923,-0.00004487,-0.00001136,0.00002379,-0.00000660,-0.00003973,
 0.00001929,-0.00010672,0.00000689,0.00006513,0.00270881,-0.00091755,-0
 .00241683,-0.00029009,0.00001093,-0.00017245,0.00014364,-0.00016233,0.
 00017035,0.00084629,-0.00018086,0.00075540,-0.12208688,-0.04193819,-0.
 12876012,-0.00875232,-0.00215931,-0.00597894,0.12875548,0.04778053,0.1
 4125897,0.00351607,-0.01740738,0.02360835,-0.00445944,0.00025777,0.001
 38520,-0.00049543,-0.00029014,-0.00050914,0.00045509,0.00012560,0.0000
 2836,0.00006217,0.00003728,-0.00007278,0.00019719,0.00009895,-0.000037
 37,0.00040184,0.00059774,0.00095529,-0.00025868,-0.00000505,0.00025741
 ,0.00002154,-0.00001599,-0.00003309,0.00003393,0.00000650,-0.00004386,
 -0.00039758,-0.00014554,0.00049505,0.00009819,-0.00005774,0.00021763,-
 0.00252387,-0.00029087,0.00048010,0.00025813,0.00024995,-0.00013511,-0
 .05658580,0.02404756,-0.03746381,-0.00105146,0.00320295,-0.00519381,-0
 .00155261,0.01661823,-0.01788214,0.06229156,0.00365786,-0.00082511,-0.
 00479242,0.00042934,0.00045373,-0.00054381,0.00002987,-0.00015368,-0.0
 0028574,0.00020839,0.00008911,0.00012506,0.00003431,0.00001528,-0.0000
 6825,0.00009868,0.00010450,-0.00006101,0.00000961,-0.00000328,-0.00002
 949,-0.00002661,0.00000150,-0.00003436,0.00000460,0.00003323,-0.000035
 81,-0.00002851,0.00001784,0.00000594,0.00017984,-0.00021003,-0.0001536
 1,-0.00008460,0.00007190,0.00012036,-0.00010105,0.00076929,-0.00029959
 ,0.00004532,0.00017815,-0.00017798,0.01915001,-0.14255125,0.13709722,0
 .00391284,-0.01732262,0.02349309,-0.00028198,0.00718390,-0.00959436,-0
 .02724935,0.15258114,0.00239762,0.00880839,-0.01874147,0.00263700,0.00
 206651,-0.00095561,0.00013525,-0.00016405,0.00004661,0.00027496,0.0000
 6803,0.00010482,0.00010068,0.00002331,-0.00008696,0.00003150,0.0000605
 8,-0.00009113,-0.00038051,-0.00063734,-0.00053327,0.00025305,0.0000618
 3,-0.00013212,-0.00004671,0.00002576,0.00002023,0.00004729,0.00001841,
 0.00002449,-0.00221052,-0.00064625,-0.00064835,-0.00032997,-0.00013555
 ,0.00025602,-0.00039448,-0.00034528,0.00197357,-0.00020018,-0.00047933
 ,0.00017693,-0.03580351,0.13384101,-0.21832157,0.00131443,-0.00723361,
 0.01043437,-0.00089981,0.00859716,-0.01063011,0.03362881,-0.14418527,0
 .23578900,-0.00104306,-0.00029014,0.00006685,-0.00101403,-0.00022457,-
 0.00005980,-0.00031201,-0.00010911,-0.00078141,0.00003847,-0.00000596,
 0.00004959,-0.00007000,-0.00015725,0.00043000,0.00001786,-0.00024925,0
 .00008321,-0.00036182,0.00008455,0.00088986,-0.00001120,0.00028505,-0.
 00010251,-0.00008976,0.00019277,-0.00048572,0.00003976,0.00002543,-0.0
 0005502,-0.00040897,0.00010346,-0.00089973,-0.00001300,0.00014900,0.00
 046655,-0.00001035,0.00029113,0.00011050,0.00003881,0.00003577,0.00005
 602,-0.00029308,-0.00012868,0.00076839,-0.00004129,-0.00008286,-0.0004
 0003,0.00003763,-0.00000966,-0.00005256,0.00001597,-0.00024157,-0.0000
 8585,0.00343502,-0.00029983,0.00532696,-0.00159373,-0.00024569,0.00499
 316,0.00174902,-0.00083446,-0.00003526,-0.00136160,0.00005285,-0.00019
 429,0.00005525,0.00018463,-0.00079846,0.00061095,-0.00003300,-0.000494
 45,0.00026703,0.00078914,0.00003951,-0.00131177,0.00008088,-0.00047127
 ,0.00025565,-0.00013584,-0.00080898,0.00056238,-0.00003210,-0.00020042
 ,0.00005132,0.00085887,0.00002026,0.00131390,-0.00022475,-0.00072530,-
 0.00054940,0.00007418,-0.00047868,-0.00026819,-0.00003528,-0.00021661,
 -0.00005181,-0.00083788,-0.00005923,0.00139886,0.00027679,-0.00070020,
 -0.00057411,0.00005466,-0.00020989,-0.00005840,-0.00003610,-0.00050036
 ,-0.00027839,0.00028678,-0.00327593,0.00011147,-0.00246414,-0.00060870
 ,-0.00010593,0.00258821,-0.00050045,-0.00053466,0.00010051,-0.00083557
 ,-0.00003718,-0.00013381,-0.00001128,0.00031761,-0.00009530,0.00053863
 ,-0.00001275,-0.00032283,0.00012249,0.00051958,0.00014417,-0.00086066,
 0.00004309,-0.00032863,0.00012297,-0.00031457,-0.00013960,0.00054416,0
 .00004741,-0.00013345,-0.00001136,-0.00053178,-0.00012511,-0.00079251,
 0.00027452,0.00015907,0.00052980,-0.00003559,0.00030486,0.00011890,-0.
 00004806,0.00013288,-0.00001239,0.00052252,-0.00007359,-0.00082627,-0.
 00026540,0.00015372,0.00054431,0.00003611,0.00013294,-0.00001190,0.000
 01168,0.00030984,0.00012178,0.00000010,-0.00018807,0.00170454,-0.00448
 661,-0.00017252,0.00024357,-0.00464475,-0.00062680,-0.00013071,-0.0031
 0270,0.00709572,-0.00344350,0.00015734,0.00059348,-0.00042403,-0.00028
 234,0.00029971,-0.00034679,-0.00002159,0.00028087,0.00053934,-0.002013
 54,-0.00648185,0.00285561,0.00002837,-0.00025177,-0.00045964,-0.000247
 22,-0.00029582,0.00047869,0.00024729,-0.00058998,0.00037454,-0.0022509
 5,-0.00661523,-0.00305891,-0.00024008,-0.00028443,-0.00049832,0.000041
 33,-0.00024938,0.00043920,0.00028906,-0.00070816,-0.00039999,-0.003048
 92,0.00680117,0.00353598,-0.00020800,0.00028766,0.00038534,0.00019385,
 0.00073082,0.00041429,-0.00002680,0.00025299,-0.00046906,0.00004505,0.
 00005615,0.00000183,0.01957120,-0.00043237,0.00403097,-0.00410570,-0.0
 0040012,0.00508226,0.00404758,0.00441383,-0.00714650,0.00558431,0.0002
 3141,0.00012022,0.00009455,-0.00028173,-0.00026355,-0.00129695,0.00026
 079,0.00002911,-0.00060743,-0.00386825,-0.00815403,0.00591517,-0.00026
 354,0.00001524,-0.00063389,0.00026972,-0.00026377,-0.00125568,-0.00020
 975,0.00004053,0.00013256,-0.00400147,-0.00772840,-0.00578726,0.000373
 59,-0.00027775,0.00119350,-0.00022710,0.00003464,0.00056013,-0.0001246
 7,-0.00017125,-0.00021031,0.00426030,-0.00671092,-0.00562476,-0.000329
 95,-0.00028751,0.00125466,0.00015123,-0.00010463,-0.00020447,0.0002556
 2,0.00006675,0.00053408,0.00004510,-0.00121056,-0.00002167,-0.00012264
 ,0.02289915,-0.00079119,0.01907630,0.00113247,0.00090966,-0.01919408,0
 .00054107,-0.00380996,0.00866562,-0.00511282,0.00009244,-0.00064319,-0
 .00030004,-0.00098910,0.00011322,0.00019406,-0.00025562,0.00087442,0.0
 0119947,0.00299239,0.00912606,-0.00519390,0.00019076,0.00086768,0.0011
 8100,0.00097346,0.00020012,0.00015047,-0.00005811,-0.00062676,-0.00032
 226,-0.00332678,-0.00906463,-0.00535908,-0.00091226,-0.00018253,0.0001
 7898,-0.00019499,-0.00086310,0.00116266,0.00010704,0.00056926,-0.00038
 337,0.00403795,-0.00884373,-0.00557809,0.00094121,-0.00011597,0.000171
 64,-0.00017427,0.00052842,-0.00040132,0.00030322,-0.00088980,0.0011927
 6,0.00000157,-0.00002889,0.00012350,-0.00003744,0.00043159,0.01542279\
 \0.00086809,-0.02088481,-0.00816373,0.00096491,-0.02006679,0.00771167,
 -0.00062013,0.01001581,-0.00150666,-0.00042892,-0.00032854,0.00018347,
 -0.00024498,0.00027333,0.00061488,-0.00047060,-0.00038931,-0.00029655,
 -0.00020796,0.01004336,-0.00163566,0.00047330,-0.00034975,-0.00037472,
 0.00023015,0.00028583,0.00060229,0.00046536,-0.00026228,0.00015308,-0.
 00013514,0.01063574,0.00194964,0.00019332,0.00025989,-0.00056368,0.000
 56361,-0.00044121,0.00035892,0.00036537,-0.00031513,-0.00020902,-0.000
 77561,0.01045473,0.00170528,-0.00017692,0.00024679,-0.00054834,-0.0004
 7288,-0.00035402,-0.00015279,-0.00046411,-0.00039337,0.00026246,0.0006
 2604,-0.01463331,-0.00018309,-0.00075292,0.01620304,0.00009256\\\@


 I DO NOT DEFINE TIME, SPACE, PLACE, AND MOTION, AS BEING WELL KNOWN TO ALL.
                                            -- NEWTON (1642-1726), PRINCIPIA
 Job cpu time:       0 days  0 hours 38 minutes 35.5 seconds.
 Elapsed time:       0 days  0 hours  4 minutes 55.1 seconds.
 File lengths (MBytes):  RWF=    150 Int=      0 D2E=      0 Chk=      9 Scr=      1
 Normal termination of Gaussian 16 at Sat Oct 26 18:26:32 2019.
