 Entering Gaussian System, Link 0=/software/gaussian/16/lssc0-linux/g16/g16
 Input=/share/siegellab/tiffy/9_bromine/2_md/scratch/12569199/2/g16.com
 Output=/share/siegellab/tiffy/9_bromine/2_md/scratch/12569199/2/g16.log
 Initial command:
 /software/gaussian/16/lssc0-linux/g16/l1.exe "/tmp/Gau-38828.inp" -scrdir="/tmp/"
 Entering Link 1 = /software/gaussian/16/lssc0-linux/g16/l1.exe PID=     38830.
  
 Copyright (c) 1988,1990,1992,1993,1995,1998,2003,2009,2016,
            Gaussian, Inc.  All Rights Reserved.
  
 This is part of the Gaussian(R) 16 program.  It is based on
 the Gaussian(R) 09 system (copyright 2009, Gaussian, Inc.),
 the Gaussian(R) 03 system (copyright 2003, Gaussian, Inc.),
 the Gaussian(R) 98 system (copyright 1998, Gaussian, Inc.),
 the Gaussian(R) 94 system (copyright 1995, Gaussian, Inc.),
 the Gaussian 92(TM) system (copyright 1992, Gaussian, Inc.),
 the Gaussian 90(TM) system (copyright 1990, Gaussian, Inc.),
 the Gaussian 88(TM) system (copyright 1988, Gaussian, Inc.),
 the Gaussian 86(TM) system (copyright 1986, Carnegie Mellon
 University), and the Gaussian 82(TM) system (copyright 1983,
 Carnegie Mellon University). Gaussian is a federally registered
 trademark of Gaussian, Inc.
  
 This software contains proprietary and confidential information,
 including trade secrets, belonging to Gaussian, Inc.
  
 This software is provided under written license and may be
 used, copied, transmitted, or stored only in accord with that
 written license.
  
 The following legend is applicable only to US Government
 contracts under FAR:
  
                    RESTRICTED RIGHTS LEGEND
  
 Use, reproduction and disclosure by the US Government is
 subject to restrictions as set forth in subparagraphs (a)
 and (c) of the Commercial Computer Software - Restricted
 Rights clause in FAR 52.227-19.
  
 Gaussian, Inc.
 340 Quinnipiac St., Bldg. 40, Wallingford CT 06492
  
  
 ---------------------------------------------------------------
 Warning -- This program may not be used in any manner that
 competes with the business of Gaussian, Inc. or will provide
 assistance to any competitor of Gaussian, Inc.  The licensee
 of this program is prohibited from giving any competitor of
 Gaussian, Inc. access to this program.  By using this program,
 the user acknowledges that Gaussian, Inc. is engaged in the
 business of creating and licensing software in the field of
 computational chemistry and represents and warrants to the
 licensee that it is not a competitor of Gaussian, Inc. and that
 it will not use this program in any manner prohibited above.
 ---------------------------------------------------------------
  

 Cite this work as:
 Gaussian 16, Revision A.03,
 M. J. Frisch, G. W. Trucks, H. B. Schlegel, G. E. Scuseria, 
 M. A. Robb, J. R. Cheeseman, G. Scalmani, V. Barone, 
 G. A. Petersson, H. Nakatsuji, X. Li, M. Caricato, A. V. Marenich, 
 J. Bloino, B. G. Janesko, R. Gomperts, B. Mennucci, H. P. Hratchian, 
 J. V. Ortiz, A. F. Izmaylov, J. L. Sonnenberg, D. Williams-Young, 
 F. Ding, F. Lipparini, F. Egidi, J. Goings, B. Peng, A. Petrone, 
 T. Henderson, D. Ranasinghe, V. G. Zakrzewski, J. Gao, N. Rega, 
 G. Zheng, W. Liang, M. Hada, M. Ehara, K. Toyota, R. Fukuda, 
 J. Hasegawa, M. Ishida, T. Nakajima, Y. Honda, O. Kitao, H. Nakai, 
 T. Vreven, K. Throssell, J. A. Montgomery, Jr., J. E. Peralta, 
 F. Ogliaro, M. J. Bearpark, J. J. Heyd, E. N. Brothers, K. N. Kudin, 
 V. N. Staroverov, T. A. Keith, R. Kobayashi, J. Normand, 
 K. Raghavachari, A. P. Rendell, J. C. Burant, S. S. Iyengar, 
 J. Tomasi, M. Cossi, J. M. Millam, M. Klene, C. Adamo, R. Cammi, 
 J. W. Ochterski, R. L. Martin, K. Morokuma, O. Farkas, 
 J. B. Foresman, and D. J. Fox, Gaussian, Inc., Wallingford CT, 2016.
 
 ******************************************
 Gaussian 16:  ES64L-G16RevA.03 25-Dec-2016
                31-Oct-2019 
 ******************************************
 %nproc=8
 Will use up to    8 processors via shared memory.
 %mem=16GB
 -----------------------------------------------------------------
 # b3lyp/6-31G(d) force scf=(tight,nosym) scrf=(smd,solvent=water)
 -----------------------------------------------------------------
 1/10=7,30=1,38=1/1,3;
 2/12=2,17=6,18=5,40=1/2;
 3/5=1,6=6,7=1,11=2,25=1,30=1,70=32201,71=1,72=1,74=-5/1,2,3;
 4/9=2/1;
 5/5=2,32=2,38=5,53=1/2;
 6/7=2,8=2,9=2,10=2,28=1/1;
 7/29=1/1,2,3,16;
 1/10=7,30=1/3;
 99//99;
 --------------------------------
 1 2 3 4 runpoint 1 runisomer 453
 --------------------------------
 Symbolic Z-matrix:
 Charge =  0 Multiplicity = 1
 C                    -0.41461   1.00168  -0.02448 
 C                    -0.43673  -0.50696  -0.05381 
 C                    -0.19126  -1.22998   1.24763 
 H                    -1.24098  -0.85683   1.9062 
 H                     1.14812  -0.72967   1.75452 
 H                    -0.03869  -2.59956   1.0465 
 C                    -0.30183  -1.26715  -1.33457 
 H                    -0.75068  -2.2893   -1.17905 
 H                     0.69667  -1.60839  -1.48853 
 H                    -0.70484  -0.75677  -2.1321 
 C                    -0.5933    1.73708  -1.28288 
 H                     0.19871   2.75636  -1.10896 
 H                    -1.88402   2.12735  -1.40839 
 H                    -0.26365   1.07111  -2.37937 
 C                    -0.60382   1.76743   1.27711 
 H                     0.43131   2.31606   1.58435 
 H                    -0.92514   1.18851   2.0945 
 H                    -1.32455   2.65497   1.2493 
 Br                    3.27179  -0.15533   0.01163 
 Br                   -2.7224   -0.11502   0.01492 
 

 GradGradGradGradGradGradGradGradGradGradGradGradGradGradGradGradGradGrad
 Berny optimization.
 Initialization pass.
 Trust Radius=3.00D-01 FncErr=1.00D-07 GrdErr=1.00D-07 EigMax=2.50D+02 EigMin=1.00D-04
 Number of steps in this run=      2 maximum allowed number of steps=      2.
 GradGradGradGradGradGradGradGradGradGradGradGradGradGradGradGradGradGrad

                          Input orientation:                          
 ---------------------------------------------------------------------
 Center     Atomic      Atomic             Coordinates (Angstroms)
 Number     Number       Type             X           Y           Z
 ---------------------------------------------------------------------
      1          6           0       -0.414614    1.001679   -0.024482
      2          6           0       -0.436734   -0.506964   -0.053809
      3          6           0       -0.191258   -1.229983    1.247628
      4          1           0       -1.240982   -0.856828    1.906202
      5          1           0        1.148120   -0.729670    1.754524
      6          1           0       -0.038689   -2.599564    1.046497
      7          6           0       -0.301827   -1.267149   -1.334566
      8          1           0       -0.750680   -2.289304   -1.179047
      9          1           0        0.696666   -1.608394   -1.488532
     10          1           0       -0.704845   -0.756771   -2.132103
     11          6           0       -0.593298    1.737077   -1.282875
     12          1           0        0.198706    2.756358   -1.108956
     13          1           0       -1.884016    2.127352   -1.408388
     14          1           0       -0.263647    1.071108   -2.379368
     15          6           0       -0.603817    1.767431    1.277112
     16          1           0        0.431305    2.316056    1.584355
     17          1           0       -0.925136    1.188514    2.094504
     18          1           0       -1.324551    2.654967    1.249298
     19         35           0        3.271794   -0.155327    0.011628
     20         35           0       -2.722402   -0.115021    0.014924
 ---------------------------------------------------------------------
                    Distance matrix (angstroms):
                    1          2          3          4          5
     1  C    0.000000
     2  C    1.509090   0.000000
     3  C    2.578462   1.508892   0.000000
     4  H    2.804366   2.147291   1.294172   0.000000
     5  H    2.933355   2.414836   1.516968   2.397286   0.000000
     6  H    3.775880   2.397517   1.392654   2.285110   2.325150
     7  C    2.622331   1.495466   2.584828   3.398963   3.454520
     8  H    3.503788   2.131070   2.706264   3.436734   3.826714
     9  H    3.192314   2.134520   2.901410   3.980395   3.390189
    10  H    2.760153   2.110353   3.451128   4.074967   4.305820
    11  C    1.468431   2.563364   3.920271   4.161496   4.282893
    12  H    2.152009   3.488036   4.647201   4.921279   4.610130
    13  H    2.311164   3.296836   4.603428   4.506143   5.230721
    14  H    2.360740   2.815758   4.295970   4.799815   4.724928
    15  C    1.521947   2.640481   3.025816   2.772808   3.087510
    16  H    2.243105   3.377353   3.615987   3.601016   3.133564
    17  H    2.187611   2.780006   2.665502   2.078134   2.844891
    18  H    2.276810   3.533287   4.046874   3.573682   4.221981
    19  Br   3.863880   3.725736   3.830837   4.944356   2.806697
    20  Br   2.564071   2.320048   3.028100   2.514322   4.287767
                    6          7          8          9         10
     6  H    0.000000
     7  C    2.741173   0.000000
     8  H    2.357167   1.127145   0.000000
     9  H    2.819492   1.066368   1.629181   0.000000
    10  H    3.734052   1.029065   1.805291   1.761726   0.000000
    11  C    4.953788   3.018775   4.030793   3.591445   2.636836
    12  H    5.778256   4.060793   5.134682   4.409434   3.768993
    13  H    5.636969   3.745852   4.565512   4.541160   3.198807
    14  H    5.026030   2.561349   3.601435   2.982535   1.896558
    15  C    4.409444   4.015064   4.744616   4.553706   4.243176
    16  H    4.967243   4.679416   5.499347   4.991428   4.954307
    17  H    4.029100   4.263487   4.779309   4.826084   4.657990
    18  H    5.413378   4.806798   5.538231   5.455023   4.843332
    19  Br   4.243177   3.977330   4.706576   3.315595   4.557518
    20  Br   3.799922   3.001284   3.168716   4.022508   3.015312
                   11         12         13         14         15
    11  C    0.000000
    12  H    1.302480   0.000000
    13  H    1.354260   2.196142   0.000000
    14  H    1.324568   2.160506   2.164266   0.000000
    15  C    2.560189   2.704689   2.996726   3.737703   0.000000
    16  H    3.099361   2.738958   3.788513   4.212356   1.211142
    17  H    3.437692   3.739427   3.751149   4.524033   1.051912
    18  H    2.790906   2.809263   2.766709   4.098944   1.143657
    19  Br   4.493981   4.379211   5.814589   4.440759   4.507639
    20  Br   3.106064   4.247446   2.785129   3.631117   3.102442
                   16         17         18         19         20
    16  H    0.000000
    17  H    1.836174   0.000000
    18  H    1.819383   1.739077   0.000000
    19  Br   4.080389   4.874269   5.527745   0.000000
    20  Br   4.280083   3.042043   3.339236   5.994333   0.000000
 Stoichiometry    C6H12Br2
 Framework group  C1[X(C6H12Br2)]
 Deg. of freedom    54
 Full point group                 C1      NOp   1
 Largest Abelian subgroup         C1      NOp   1
 Largest concise Abelian subgroup C1      NOp   1
                         Standard orientation:                         
 ---------------------------------------------------------------------
 Center     Atomic      Atomic             Coordinates (Angstroms)
 Number     Number       Type             X           Y           Z
 ---------------------------------------------------------------------
      1          6           0        0.449344    0.954163    0.106564
      2          6           0        0.408662   -0.550768    0.002246
      3          6           0        0.128729   -1.144868   -1.356223
      4          1           0        1.190794   -0.758393   -1.986729
      5          1           0       -1.190388   -0.546830   -1.807299
      6          1           0       -0.080094   -2.519430   -1.275868
      7          6           0        0.246647   -1.415261    1.211718
      8          1           0        0.651959   -2.437237    0.963234
      9          1           0       -0.764659   -1.727369    1.342060
     10          1           0        0.673365   -0.994618    2.048345
     11          6           0        0.662909    1.567150    1.423730
     12          1           0       -0.086521    2.629604    1.346278
     13          1           0        1.969202    1.891241    1.574008
     14          1           0        0.309607    0.820777    2.459387
     15          6           0        0.665765    1.823806   -1.123560
     16          1           0       -0.346652    2.439692   -1.373678
     17          1           0        0.959824    1.306861   -1.991210
     18          1           0        1.422961    2.674925   -1.022555
     19         35           0       -3.282191   -0.042183   -0.005289
     20         35           0        2.708427   -0.248804   -0.047935
 ---------------------------------------------------------------------
 Rotational constants (GHZ):           1.7751168           0.3221227           0.3103949
 Standard basis: 6-31G(d) (6D, 7F)
 There are   174 symmetry adapted cartesian basis functions of A   symmetry.
 There are   174 symmetry adapted basis functions of A   symmetry.
   174 basis functions,   382 primitive gaussians,   174 cartesian basis functions
    59 alpha electrons       59 beta electrons
       nuclear repulsion energy       859.5715166305 Hartrees.
 NAtoms=   20 NActive=   20 NUniq=   20 SFac= 1.00D+00 NAtFMM=   60 NAOKFM=F Big=F
 Integral buffers will be    131072 words long.
 Raffenetti 2 integral format.
 Two-electron integral symmetry is turned on.
 ------------------------------------------------------------------------------
 Polarizable Continuum Model (PCM)
 =================================
 Model                : PCM.
 Atomic radii         : SMD-Coulomb.
 Polarization charges : Total charges.
 Charge compensation  : None.
 Solution method      : On-the-fly selection.
 Cavity type          : VdW (van der Waals Surface) (Alpha=1.000).
 Cavity algorithm     : GePol (No added spheres)
                        Default sphere list used, NSphG=   20.
                        Lebedev-Laikov grids with approx.  5.0 points / Ang**2.
                        Smoothing algorithm: York/Karplus (Gamma=1.0000).
                        Polarization charges: spherical gaussians, with
                                              point-specific exponents (IZeta= 3).
                        Self-potential: point-specific (ISelfS= 7).
                        Self-field    : sphere-specific E.n sum rule (ISelfD= 2).
 1st derivatives      : Analytical E(r).r(x)/FMM algorithm (CHGder, D1EAlg=3).
                        Cavity 1st derivative terms included.
 Solvent              : Water, Eps=  78.355300 Eps(inf)=   1.777849
 ------------------------------------------------------------------------------
 Spheres list:
 ISph  on   Nord     Re0    Alpha      Xe            Ye            Ze
    1   C      1    1.8500  1.000      0.449344      0.954163      0.106564
    2   C      2    1.8500  1.000      0.408662     -0.550768      0.002246
    3   C      3    1.8500  1.000      0.128729     -1.144868     -1.356223
    4   H      4    1.2000  1.000      1.190794     -0.758393     -1.986729
    5   H      5    1.2000  1.000     -1.190388     -0.546830     -1.807299
    6   H      6    1.2000  1.000     -0.080094     -2.519430     -1.275868
    7   C      7    1.8500  1.000      0.246647     -1.415261      1.211718
    8   H      8    1.2000  1.000      0.651959     -2.437237      0.963234
    9   H      9    1.2000  1.000     -0.764659     -1.727369      1.342060
   10   H     10    1.2000  1.000      0.673365     -0.994618      2.048345
   11   C     11    1.8500  1.000      0.662909      1.567150      1.423730
   12   H     12    1.2000  1.000     -0.086521      2.629604      1.346278
   13   H     13    1.2000  1.000      1.969202      1.891241      1.574008
   14   H     14    1.2000  1.000      0.309607      0.820777      2.459387
   15   C     15    1.8500  1.000      0.665765      1.823806     -1.123560
   16   H     16    1.2000  1.000     -0.346652      2.439692     -1.373678
   17   H     17    1.2000  1.000      0.959824      1.306861     -1.991210
   18   H     18    1.2000  1.000      1.422961      2.674925     -1.022555
   19  Br     19    3.0600  1.000     -3.282191     -0.042183     -0.005289
   20  Br     20    3.0600  1.000      2.708427     -0.248804     -0.047935
 ------------------------------------------------------------------------------
 ------------------------------------------------------------------------------
 Atomic radii for non-electrostatic terms: SMD-CDS.
 ------------------------------------------------------------------------------
 Nuclear repulsion after PCM non-electrostatic terms =      859.5767701030 Hartrees.
 One-electron integrals computed using PRISM.
 NBasis=   174 RedAO= T EigKep=  7.31D-04  NBF=   174
 NBsUse=   174 1.00D-06 EigRej= -1.00D+00 NBFU=   174
 SCF N**3 symmetry information disabled.
 ExpMin= 1.43D-01 ExpMax= 5.74D+05 ExpMxC= 5.74D+03 IAcc=3 IRadAn=         5 AccDes= 0.00D+00
 Harris functional with IExCor=  402 and IRadAn=       5 diagonalized for initial guess.
 HarFok:  IExCor=  402 AccDes= 0.00D+00 IRadAn=         5 IDoV= 1 UseB2=F ITyADJ=14
 ICtDFT=  3500011 ScaDFX=  1.000000  1.000000  1.000000  1.000000
 FoFCou: FMM=F IPFlag=           0 FMFlag=      100000 FMFlg1=           0
         NFxFlg=           0 DoJE=T BraDBF=F KetDBF=T FulRan=T
         wScrn=  0.000000 ICntrl=       500 IOpCl=  0 I1Cent=   200000004 NGrid=           0
         NMat0=    1 NMatS0=      1 NMatT0=    0 NMatD0=    1 NMtDS0=    0 NMtDT0=    0
 Petite list used in FoFCou.
 Requested convergence on RMS density matrix=1.00D-08 within 128 cycles.
 Requested convergence on MAX density matrix=1.00D-06.
 Requested convergence on             energy=1.00D-06.
 No special actions if energy rises.
 Inv3:  Mode=1 IEnd=     9271692.
 Iteration    1 A*A^-1 deviation from unit magnitude is 4.88D-15 for   1729.
 Iteration    1 A*A^-1 deviation from orthogonality  is 1.82D-15 for   1754   1752.
 Iteration    1 A^-1*A deviation from unit magnitude is 4.44D-15 for   1729.
 Iteration    1 A^-1*A deviation from orthogonality  is 1.55D-15 for   1312    421.
 EnCoef did     7 forward-backward iterations
 Error on total polarization charges =  0.01754
 SCF Done:  E(RB3LYP) =  -5379.02318157     A.U. after   17 cycles
            NFock= 17  Conv=0.46D-08     -V/T= 2.0066
 SMD-CDS (non-electrostatic) energy       (kcal/mol) =       3.30
 (included in total energy above)

 **********************************************************************

            Population analysis using the SCF density.

 **********************************************************************

 Orbital symmetries:
       Occupied  (A) (A) (A) (A) (A) (A) (A) (A) (A) (A) (A) (A)
                 (A) (A) (A) (A) (A) (A) (A) (A) (A) (A) (A) (A)
                 (A) (A) (A) (A) (A) (A) (A) (A) (A) (A) (A) (A)
                 (A) (A) (A) (A) (A) (A) (A) (A) (A) (A) (A) (A)
                 (A) (A) (A) (A) (A) (A) (A) (A) (A) (A) (A)
       Virtual   (A) (A) (A) (A) (A) (A) (A) (A) (A) (A) (A) (A)
                 (A) (A) (A) (A) (A) (A) (A) (A) (A) (A) (A) (A)
                 (A) (A) (A) (A) (A) (A) (A) (A) (A) (A) (A) (A)
                 (A) (A) (A) (A) (A) (A) (A) (A) (A) (A) (A) (A)
                 (A) (A) (A) (A) (A) (A) (A) (A) (A) (A) (A) (A)
                 (A) (A) (A) (A) (A) (A) (A) (A) (A) (A) (A) (A)
                 (A) (A) (A) (A) (A) (A) (A) (A) (A) (A) (A) (A)
                 (A) (A) (A) (A) (A) (A) (A) (A) (A) (A) (A) (A)
                 (A) (A) (A) (A) (A) (A) (A) (A) (A) (A) (A) (A)
                 (A) (A) (A) (A) (A) (A) (A)
 The electronic state is 1-A.
 Alpha  occ. eigenvalues -- -482.91618-482.79478 -61.87753 -61.75689 -56.39749
 Alpha  occ. eigenvalues --  -56.39384 -56.39362 -56.27630 -56.27532 -56.27514
 Alpha  occ. eigenvalues --  -10.31837 -10.30627 -10.25741 -10.25688 -10.21670
 Alpha  occ. eigenvalues --  -10.18986  -8.58699  -8.46738  -6.54006  -6.52825
 Alpha  occ. eigenvalues --   -6.52759  -6.41542  -6.41207  -6.41149  -2.65558
 Alpha  occ. eigenvalues --   -2.65260  -2.65208  -2.64268  -2.64267  -2.53207
 Alpha  occ. eigenvalues --   -2.53133  -2.53087  -2.52821  -2.52819  -0.88135
 Alpha  occ. eigenvalues --   -0.78531  -0.74633  -0.71474  -0.68766  -0.63322
 Alpha  occ. eigenvalues --   -0.61749  -0.51567  -0.48826  -0.45779  -0.44986
 Alpha  occ. eigenvalues --   -0.43505  -0.41189  -0.40076  -0.38923  -0.37358
 Alpha  occ. eigenvalues --   -0.36410  -0.35901  -0.33097  -0.31385  -0.29228
 Alpha  occ. eigenvalues --   -0.28516  -0.20335  -0.19986  -0.19896
 Alpha virt. eigenvalues --   -0.15069  -0.06536   0.02567   0.05082   0.05632
 Alpha virt. eigenvalues --    0.07867   0.09671   0.09840   0.11099   0.13626
 Alpha virt. eigenvalues --    0.14977   0.16492   0.19479   0.20191   0.20967
 Alpha virt. eigenvalues --    0.22561   0.22934   0.28007   0.29160   0.30866
 Alpha virt. eigenvalues --    0.32698   0.39634   0.41115   0.43335   0.44232
 Alpha virt. eigenvalues --    0.44903   0.45950   0.47574   0.50043   0.50514
 Alpha virt. eigenvalues --    0.52575   0.53953   0.55073   0.55578   0.55877
 Alpha virt. eigenvalues --    0.56170   0.56258   0.57930   0.58728   0.59256
 Alpha virt. eigenvalues --    0.61917   0.62930   0.63896   0.66914   0.68166
 Alpha virt. eigenvalues --    0.70885   0.72429   0.74632   0.75704   0.77393
 Alpha virt. eigenvalues --    0.78208   0.80068   0.81560   0.81940   0.83068
 Alpha virt. eigenvalues --    0.83687   0.84272   0.87267   0.90318   0.90834
 Alpha virt. eigenvalues --    0.91307   0.92643   0.94929   0.98618   1.02347
 Alpha virt. eigenvalues --    1.03594   1.05187   1.12230   1.22125   1.29752
 Alpha virt. eigenvalues --    1.33144   1.38514   1.39433   1.39867   1.49189
 Alpha virt. eigenvalues --    1.51694   1.62816   1.63676   1.71284   1.76469
 Alpha virt. eigenvalues --    1.77124   1.80309   1.82677   1.85090   1.88648
 Alpha virt. eigenvalues --    1.91786   1.92164   1.95362   1.97776   2.02929
 Alpha virt. eigenvalues --    2.03699   2.08854   2.12256   2.13487   2.16285
 Alpha virt. eigenvalues --    2.27776   2.28112   2.31939   2.36371   2.44649
 Alpha virt. eigenvalues --    2.50207   2.57386   2.58902   2.79132   2.84580
 Alpha virt. eigenvalues --    4.03303   4.14063   4.21745   4.25217   4.42457
 Alpha virt. eigenvalues --    4.55560   8.67799   8.68934  72.38374  74.30359
          Condensed to atoms (all electrons):
               1          2          3          4          5          6
     1  C    4.862238   0.375283  -0.054198  -0.008745  -0.005206   0.002661
     2  C    0.375283   4.925059   0.299890  -0.032033  -0.020022  -0.026797
     3  C   -0.054198   0.299890   5.362923   0.322030   0.283584   0.330655
     4  H   -0.008745  -0.032033   0.322030   0.561826  -0.007145  -0.013340
     5  H   -0.005206  -0.020022   0.283584  -0.007145   0.583181  -0.014753
     6  H    0.002661  -0.026797   0.330655  -0.013340  -0.014753   0.568352
     7  C   -0.046100   0.383438  -0.054226   0.004702   0.000715  -0.006787
     8  H    0.004121  -0.024072  -0.004768   0.000081   0.000055   0.003889
     9  H   -0.001109  -0.023387  -0.001043   0.000025  -0.000073   0.000702
    10  H   -0.008188  -0.025120   0.005045  -0.000263  -0.000097   0.000265
    11  C    0.334675  -0.050705   0.004862  -0.000234  -0.000009  -0.000070
    12  H   -0.030157   0.003880  -0.000114  -0.000007  -0.000005   0.000001
    13  H   -0.022737  -0.001439  -0.000042   0.000050  -0.000006   0.000001
    14  H   -0.024889  -0.008008   0.000048  -0.000002   0.000004  -0.000005
    15  C    0.365745  -0.044296  -0.010052   0.000840   0.000095   0.000077
    16  H   -0.015681   0.000704   0.000148  -0.000108   0.000630  -0.000000
    17  H   -0.024331  -0.006613   0.003971   0.004094  -0.000026  -0.000045
    18  H   -0.023531   0.001675   0.000201   0.000266   0.000035  -0.000002
    19  Br   0.020576   0.008355  -0.014958   0.000258   0.027214   0.000492
    20  Br   0.006022   0.148978  -0.054302  -0.004277   0.002009   0.000647
               7          8          9         10         11         12
     1  C   -0.046100   0.004121  -0.001109  -0.008188   0.334675  -0.030157
     2  C    0.383438  -0.024072  -0.023387  -0.025120  -0.050705   0.003880
     3  C   -0.054226  -0.004768  -0.001043   0.005045   0.004862  -0.000114
     4  H    0.004702   0.000081   0.000025  -0.000263  -0.000234  -0.000007
     5  H    0.000715   0.000055  -0.000073  -0.000097  -0.000009  -0.000005
     6  H   -0.006787   0.003889   0.000702   0.000265  -0.000070   0.000001
     7  C    5.176220   0.356390   0.350310   0.373390  -0.013304   0.000128
     8  H    0.356390   0.519603  -0.032618  -0.020147   0.000362  -0.000005
     9  H    0.350310  -0.032618   0.477423  -0.018262  -0.000167   0.000003
    10  H    0.373390  -0.020147  -0.018262   0.485538   0.003749  -0.000057
    11  C   -0.013304   0.000362  -0.000167   0.003749   5.315342   0.325043
    12  H    0.000128  -0.000005   0.000003  -0.000057   0.325043   0.526994
    13  H    0.000602   0.000014  -0.000006  -0.000121   0.322907  -0.008890
    14  H   -0.001037   0.000127   0.000171   0.004374   0.338788  -0.015707
    15  C    0.004402  -0.000070  -0.000043  -0.000095  -0.063818  -0.005460
    16  H   -0.000081  -0.000000  -0.000002   0.000000  -0.001374   0.000526
    17  H    0.000100  -0.000001  -0.000006  -0.000002   0.003710   0.000151
    18  H   -0.000038   0.000002  -0.000000  -0.000007  -0.001827   0.001059
    19  Br  -0.006907   0.000273   0.012117   0.000001  -0.000735  -0.000254
    20  Br  -0.039928  -0.004865   0.003748  -0.001697  -0.029955   0.001584
              13         14         15         16         17         18
     1  C   -0.022737  -0.024889   0.365745  -0.015681  -0.024331  -0.023531
     2  C   -0.001439  -0.008008  -0.044296   0.000704  -0.006613   0.001675
     3  C   -0.000042   0.000048  -0.010052   0.000148   0.003971   0.000201
     4  H    0.000050  -0.000002   0.000840  -0.000108   0.004094   0.000266
     5  H   -0.000006   0.000004   0.000095   0.000630  -0.000026   0.000035
     6  H    0.000001  -0.000005   0.000077  -0.000000  -0.000045  -0.000002
     7  C    0.000602  -0.001037   0.004402  -0.000081   0.000100  -0.000038
     8  H    0.000014   0.000127  -0.000070  -0.000000  -0.000001   0.000002
     9  H   -0.000006   0.000171  -0.000043  -0.000002  -0.000006  -0.000000
    10  H   -0.000121   0.004374  -0.000095   0.000000  -0.000002  -0.000007
    11  C    0.322907   0.338788  -0.063818  -0.001374   0.003710  -0.001827
    12  H   -0.008890  -0.015707  -0.005460   0.000526   0.000151   0.001059
    13  H    0.516901  -0.016938  -0.001926   0.000190  -0.000103   0.000933
    14  H   -0.016938   0.527640   0.002719  -0.000078  -0.000086   0.000057
    15  C   -0.001926   0.002719   5.220939   0.332624   0.370582   0.362100
    16  H    0.000190  -0.000078   0.332624   0.501210  -0.017500  -0.021432
    17  H   -0.000103  -0.000086   0.370582  -0.017500   0.477605  -0.030353
    18  H    0.000933   0.000057   0.362100  -0.021432  -0.030353   0.488226
    19  Br   0.000034   0.000086  -0.001397   0.000467   0.000012   0.000039
    20  Br  -0.005589   0.000738  -0.019715   0.001953  -0.002318  -0.002657
              19         20
     1  C    0.020576   0.006022
     2  C    0.008355   0.148978
     3  C   -0.014958  -0.054302
     4  H    0.000258  -0.004277
     5  H    0.027214   0.002009
     6  H    0.000492   0.000647
     7  C   -0.006907  -0.039928
     8  H    0.000273  -0.004865
     9  H    0.012117   0.003748
    10  H    0.000001  -0.001697
    11  C   -0.000735  -0.029955
    12  H   -0.000254   0.001584
    13  H    0.000034  -0.005589
    14  H    0.000086   0.000738
    15  C   -0.001397  -0.019715
    16  H    0.000467   0.001953
    17  H    0.000012  -0.002318
    18  H    0.000039  -0.002657
    19  Br  35.676742   0.000263
    20  Br   0.000263  35.168385
 Mulliken charges:
               1
     1  C    0.293550
     2  C    0.115228
     3  C   -0.419653
     4  H    0.171982
     5  H    0.149819
     6  H    0.154056
     7  C   -0.481990
     8  H    0.201629
     9  H    0.232217
    10  H    0.201695
    11  C   -0.487241
    12  H    0.201287
    13  H    0.216164
    14  H    0.191998
    15  C   -0.513252
    16  H    0.217804
    17  H    0.221158
    18  H    0.225253
    19  Br  -0.722680
    20  Br  -0.169025
 Sum of Mulliken charges =  -0.00000
 Mulliken charges with hydrogens summed into heavy atoms:
               1
     1  C    0.293550
     2  C    0.115228
     3  C    0.056204
     7  C    0.153551
    11  C    0.122209
    15  C    0.150963
    19  Br  -0.722680
    20  Br  -0.169025
 Electronic spatial extent (au):  <R**2>=           3161.6721
 Charge=             -0.0000 electrons
 Dipole moment (field-independent basis, Debye):
    X=             10.7224    Y=              2.4471    Z=              0.7920  Tot=             11.0266
 Quadrupole moment (field-independent basis, Debye-Ang):
   XX=           -114.5259   YY=            -64.8158   ZZ=            -71.8843
   XY=              3.1144   XZ=              0.5786   YZ=             -1.7699
 Traceless Quadrupole moment (field-independent basis, Debye-Ang):
   XX=            -30.7839   YY=             18.9262   ZZ=             11.8577
   XY=              3.1144   XZ=              0.5786   YZ=             -1.7699
 Octapole moment (field-independent basis, Debye-Ang**2):
  XXX=            117.2852  YYY=              1.9593  ZZZ=              6.1864  XYY=              4.9018
  XXY=              5.2834  XXZ=             -0.5162  XZZ=              4.7023  YZZ=              2.5642
  YYZ=             -0.6278  XYZ=              0.7567
 Hexadecapole moment (field-independent basis, Debye-Ang**3):
 XXXX=          -2626.9040 YYYY=           -510.4578 ZZZZ=           -422.3359 XXXY=             -2.4782
 XXXZ=              0.2434 YYYX=             -5.5021 YYYZ=            -15.5666 ZZZX=             -4.6222
 ZZZY=            -16.0413 XXYY=           -472.5988 XXZZ=           -449.6585 YYZZ=           -161.0473
 XXYZ=              0.8505 YYXZ=             -1.9904 ZZXY=              0.5718
 N-N= 8.595767701030D+02 E-N=-1.453084714910D+04  KE= 5.343788141258D+03
 D1PCM: PCM CHGder 1st derivatives, ID1Alg=3 FixD1E=F DoIter=F DoCFld=F I1PDM=0.
 Calling FoFJK, ICntrl=      2127 FMM=F ISym2X=0 I1Cent= 0 IOpClX= 0 NMat=1 NMatS=1 NMatT=0.
 ***** Axes restored to original set *****
 -------------------------------------------------------------------
 Center     Atomic                   Forces (Hartrees/Bohr)
 Number     Number              X              Y              Z
 -------------------------------------------------------------------
      1        6          -0.041039237   -0.011795011    0.007511548
      2        6           0.007177802    0.003893164    0.011646454
      3        6           0.019717346   -0.023047778    0.037198949
      4        1           0.073498674   -0.036072515   -0.020009523
      5        1          -0.078935622   -0.029404451   -0.030260033
      6        1          -0.014915173    0.090600363    0.016605406
      7        6          -0.004187066   -0.047792968    0.047664877
      8        1          -0.006816665    0.021445195   -0.004760850
      9        1           0.027960473    0.010958761   -0.003702715
     10        1          -0.015306878    0.014740925   -0.040592484
     11        6           0.008448883    0.046499085   -0.060447712
     12        1          -0.050957664   -0.053625323   -0.019716698
     13        1           0.085223472   -0.017511827    0.007237674
     14        1          -0.020064411    0.047222207    0.070960718
     15        6           0.044166855    0.057425234   -0.009449060
     16        1          -0.039884312   -0.028252290   -0.014596881
     17        1          -0.000916191   -0.019737317    0.020152334
     18        1           0.016579870   -0.022828271   -0.014196424
     19       35          -0.011326894    0.002349166    0.001605986
     20       35           0.001576738   -0.005066348   -0.002851566
 -------------------------------------------------------------------
 Cartesian Forces:  Max     0.090600363 RMS     0.034945167

 GradGradGradGradGradGradGradGradGradGradGradGradGradGradGradGradGradGrad
 Berny optimization.
 Search for a local minimum.
 Step number   1 out of a maximum of    2
 All quantities printed in internal units (Hartrees-Bohrs-Radians)
 Second derivative matrix not updated -- first step.
 ITU=  0
     Eigenvalues ---    0.00079   0.00255   0.00334   0.00442   0.00547
     Eigenvalues ---    0.00615   0.00825   0.01015   0.01395   0.01542
     Eigenvalues ---    0.01710   0.02626   0.03192   0.03288   0.04643
     Eigenvalues ---    0.04916   0.05114   0.05489   0.06124   0.06298
     Eigenvalues ---    0.08846   0.08963   0.09212   0.10415   0.11370
     Eigenvalues ---    0.11647   0.12951   0.13911   0.14782   0.16366
     Eigenvalues ---    0.17273   0.19273   0.19635   0.24173   0.26334
     Eigenvalues ---    0.34205   0.35333   0.37479   0.47284   0.51227
     Eigenvalues ---    0.55942   0.62803   0.65494   0.73410   0.78294
     Eigenvalues ---    0.85917   0.90464   0.98369   0.99551   1.00000
     Eigenvalues ---    1.00626   1.11846   1.18252   1.24740
 Quadratic step=1.381D+01 exceeds max=3.000D-01 adjusted using Lamda=-5.726D-01.
 Angle between NR and scaled steps=  78.21 degrees.
 Angle between quadratic step and forces=  19.14 degrees.
 Linear search not attempted -- first point.
 B after Tr=    -0.002720   -0.001029    0.000137
         Rot=    1.000000    0.000534    0.000275    0.000151 Ang=   0.07 deg.
 Variable       Old X    -DE/DX   Delta X   Delta X   Delta X     New X
                                 (Linear)    (Quad)   (Total)
    X1       -0.78351  -0.04104   0.00000  -0.05268  -0.05480  -0.83831
    Y1        1.89290  -0.01180   0.00000   0.00023  -0.00060   1.89230
    Z1       -0.04626   0.00751   0.00000  -0.00127  -0.00361  -0.04988
    X2       -0.82531   0.00718   0.00000   0.00270  -0.00027  -0.82557
    Y2       -0.95802   0.00389   0.00000  -0.00388  -0.00475  -0.96277
    Z2       -0.10168   0.01165   0.00000   0.01836   0.01908  -0.08261
    X3       -0.36143   0.01972   0.00000   0.03921   0.03446  -0.32696
    Y3       -2.32433  -0.02305   0.00000  -0.01612  -0.01449  -2.33882
    Z3        2.35768   0.03720   0.00000   0.03364   0.03610   2.39378
    X4       -2.34512   0.07350   0.00000   0.10205   0.09685  -2.24827
    Y4       -1.61917  -0.03607   0.00000  -0.05800  -0.05452  -1.67369
    Z4        3.60220  -0.02001   0.00000  -0.02203  -0.02134   3.58086
    X5        2.16963  -0.07894   0.00000  -0.05117  -0.05613   2.11351
    Y5       -1.37888  -0.02940   0.00000  -0.02088  -0.01902  -1.39790
    Z5        3.31557  -0.03026   0.00000  -0.02004  -0.01724   3.29833
    X6       -0.07311  -0.01492   0.00000  -0.02382  -0.02909  -0.10220
    Y6       -4.91246   0.09060   0.00000   0.12010   0.12124  -4.79123
    Z6        1.97759   0.01661   0.00000   0.01729   0.02250   2.00009
    X7       -0.57037  -0.00419   0.00000  -0.00584  -0.00792  -0.57829
    Y7       -2.39456  -0.04779   0.00000  -0.02556  -0.02909  -2.42365
    Z7       -2.52196   0.04766   0.00000   0.02291   0.02532  -2.49664
    X8       -1.41858  -0.00682   0.00000  -0.01743  -0.02022  -1.43880
    Y8       -4.32616   0.02145   0.00000   0.01847   0.01549  -4.31067
    Z8       -2.22808  -0.00476   0.00000  -0.00927  -0.00532  -2.23340
    X9        1.31651   0.02796   0.00000   0.03023   0.02815   1.34466
    Y9       -3.03942   0.01096   0.00000   0.01869   0.01425  -3.02518
    Z9       -2.81292  -0.00370   0.00000  -0.00433  -0.00022  -2.81314
   X10       -1.33196  -0.01531   0.00000  -0.01265  -0.01357  -1.34553
   Y10       -1.43009   0.01474   0.00000   0.00833   0.00336  -1.42673
   Z10       -4.02909  -0.04059   0.00000  -0.03419  -0.03327  -4.06236
   X11       -1.12117   0.00845   0.00000   0.00810   0.00774  -1.11343
   Y11        3.28260   0.04650   0.00000   0.04234   0.03901   3.32161
   Z11       -2.42428  -0.06045   0.00000  -0.03712  -0.04115  -2.46543
   X12        0.37550  -0.05096   0.00000  -0.06364  -0.06364   0.31186
   Y12        5.20876  -0.05363   0.00000  -0.06115  -0.06454   5.14422
   Z12       -2.09562  -0.01972   0.00000  -0.02426  -0.02945  -2.12507
   X13       -3.56027   0.08522   0.00000   0.11705   0.11700  -3.44327
   Y13        4.02011  -0.01751   0.00000  -0.01411  -0.01693   4.00318
   Z13       -2.66147   0.00724   0.00000   0.00845   0.00241  -2.65905
   X14       -0.49822  -0.02006   0.00000  -0.02517  -0.02483  -0.52305
   Y14        2.02410   0.04722   0.00000   0.07094   0.06536   2.08946
   Z14       -4.49635   0.07096   0.00000   0.09137   0.08898  -4.40737
   X15       -1.14105   0.04417   0.00000   0.03117   0.02814  -1.11291
   Y15        3.33996   0.05743   0.00000   0.02856   0.03044   3.37040
   Z15        2.41339  -0.00945   0.00000   0.00047  -0.00360   2.40979
   X16        0.81505  -0.03988   0.00000  -0.03795  -0.04099   0.77406
   Y16        4.37671  -0.02825   0.00000  -0.03530  -0.03338   4.34334
   Z16        2.99400  -0.01460   0.00000  -0.01308  -0.01715   2.97684
   X17       -1.74825  -0.00092   0.00000   0.00733   0.00310  -1.74515
   Y17        2.24597  -0.01974   0.00000  -0.01887  -0.01513   2.23084
   Z17        3.95804   0.02015   0.00000   0.01573   0.01253   3.97056
   X18       -2.50304   0.01658   0.00000   0.02130   0.01880  -2.48424
   Y18        5.01716  -0.02283   0.00000  -0.02556  -0.02334   4.99382
   Z18        2.36083  -0.01420   0.00000  -0.01578  -0.02234   2.33849
   X19        6.18279  -0.01133   0.00000  -0.01081  -0.01363   6.16916
   Y19       -0.29352   0.00235   0.00000  -0.00522  -0.00809  -0.30161
   Z19        0.02197   0.00161   0.00000   0.00094   0.00480   0.02677
   X20       -5.14459   0.00158   0.00000  -0.00637  -0.00916  -5.15376
   Y20       -0.21736  -0.00507   0.00000  -0.00582  -0.00528  -0.22263
   Z20        0.02820  -0.00285   0.00000  -0.01455  -0.01701   0.01119
         Item               Value     Threshold  Converged?
 Maximum Force            0.090600     0.000450     NO 
 RMS     Force            0.034945     0.000300     NO 
 Maximum Displacement     0.121239     0.001800     NO 
 RMS     Displacement     0.038672     0.001200     NO 
 Predicted change in Energy=-6.407685D-02
 GradGradGradGradGradGradGradGradGradGradGradGradGradGradGradGradGradGrad

 1\1\GINC-RAFTER-20\Force\RB3LYP\6-31G(d)\C6H12Br2\TIFFY\31-Oct-2019\0\
 \# b3lyp/6-31G(d) force scf=(tight,nosym) scrf=(smd,solvent=water)\\1 
 2 3 4 runpoint 1 runisomer 453\\0,1\C,-0.4146138,1.0016789,-0.0244823\
 C,-0.436734,-0.5069641,-0.0538092\C,-0.1912582,-1.2299829,1.2476282\H,
 -1.2409815,-0.856828,1.9062015\H,1.1481202,-0.72967,1.7545244\H,-0.038
 6894,-2.5995641,1.0464967\C,-0.3018266,-1.267149,-1.3345662\H,-0.75067
 95,-2.2893042,-1.1790469\H,0.6966662,-1.608394,-1.4885321\H,-0.7048446
 ,-0.7567705,-2.132103\C,-0.5932983,1.7370767,-1.2828753\H,0.1987059,2.
 7563583,-1.1089561\H,-1.8840156,2.1273518,-1.4083884\H,-0.2636471,1.07
 11075,-2.3793675\C,-0.6038168,1.7674308,1.2771121\H,0.4313051,2.316055
 6,1.5843546\H,-0.9251356,1.1885142,2.0945039\H,-1.3245514,2.6549665,1.
 2492983\Br,3.2717942,-0.1553266,0.0116277\Br,-2.722402,-0.1150209,0.01
 49238\\Version=ES64L-G16RevA.03\State=1-A\HF=-5379.0231816\RMSD=4.585e
 -09\RMSF=3.495e-02\Dipole=-4.1729241,1.1615448,-0.2397352\Quadrupole=-
 23.0202834,13.9296226,9.0906609,-0.8145658,0.184733,1.7448048\PG=C01 [
 X(C6H12Br2)]\\@


 FESTINA LENTE!
     - IMPERATOR AUGUSTUS 
 Job cpu time:       0 days  0 hours  8 minutes 38.0 seconds.
 Elapsed time:       0 days  0 hours  1 minutes  5.5 seconds.
 File lengths (MBytes):  RWF=     74 Int=      0 D2E=      0 Chk=      4 Scr=      1
 Normal termination of Gaussian 16 at Thu Oct 31 11:17:32 2019.
