 Entering Gaussian System, Link 0=/software/gaussian/16/lssc0-linux/g16/g16
 Input=/share/siegellab/tiffy/9_bromine/2_md/scratch/12568818/1/g16.com
 Output=/share/siegellab/tiffy/9_bromine/2_md/scratch/12568818/1/g16.log
 Initial command:
 /software/gaussian/16/lssc0-linux/g16/l1.exe "/tmp/Gau-61225.inp" -scrdir="/tmp/"
 Entering Link 1 = /software/gaussian/16/lssc0-linux/g16/l1.exe PID=     61227.
  
 Copyright (c) 1988,1990,1992,1993,1995,1998,2003,2009,2016,
            Gaussian, Inc.  All Rights Reserved.
  
 This is part of the Gaussian(R) 16 program.  It is based on
 the Gaussian(R) 09 system (copyright 2009, Gaussian, Inc.),
 the Gaussian(R) 03 system (copyright 2003, Gaussian, Inc.),
 the Gaussian(R) 98 system (copyright 1998, Gaussian, Inc.),
 the Gaussian(R) 94 system (copyright 1995, Gaussian, Inc.),
 the Gaussian 92(TM) system (copyright 1992, Gaussian, Inc.),
 the Gaussian 90(TM) system (copyright 1990, Gaussian, Inc.),
 the Gaussian 88(TM) system (copyright 1988, Gaussian, Inc.),
 the Gaussian 86(TM) system (copyright 1986, Carnegie Mellon
 University), and the Gaussian 82(TM) system (copyright 1983,
 Carnegie Mellon University). Gaussian is a federally registered
 trademark of Gaussian, Inc.
  
 This software contains proprietary and confidential information,
 including trade secrets, belonging to Gaussian, Inc.
  
 This software is provided under written license and may be
 used, copied, transmitted, or stored only in accord with that
 written license.
  
 The following legend is applicable only to US Government
 contracts under FAR:
  
                    RESTRICTED RIGHTS LEGEND
  
 Use, reproduction and disclosure by the US Government is
 subject to restrictions as set forth in subparagraphs (a)
 and (c) of the Commercial Computer Software - Restricted
 Rights clause in FAR 52.227-19.
  
 Gaussian, Inc.
 340 Quinnipiac St., Bldg. 40, Wallingford CT 06492
  
  
 ---------------------------------------------------------------
 Warning -- This program may not be used in any manner that
 competes with the business of Gaussian, Inc. or will provide
 assistance to any competitor of Gaussian, Inc.  The licensee
 of this program is prohibited from giving any competitor of
 Gaussian, Inc. access to this program.  By using this program,
 the user acknowledges that Gaussian, Inc. is engaged in the
 business of creating and licensing software in the field of
 computational chemistry and represents and warrants to the
 licensee that it is not a competitor of Gaussian, Inc. and that
 it will not use this program in any manner prohibited above.
 ---------------------------------------------------------------
  

 Cite this work as:
 Gaussian 16, Revision A.03,
 M. J. Frisch, G. W. Trucks, H. B. Schlegel, G. E. Scuseria, 
 M. A. Robb, J. R. Cheeseman, G. Scalmani, V. Barone, 
 G. A. Petersson, H. Nakatsuji, X. Li, M. Caricato, A. V. Marenich, 
 J. Bloino, B. G. Janesko, R. Gomperts, B. Mennucci, H. P. Hratchian, 
 J. V. Ortiz, A. F. Izmaylov, J. L. Sonnenberg, D. Williams-Young, 
 F. Ding, F. Lipparini, F. Egidi, J. Goings, B. Peng, A. Petrone, 
 T. Henderson, D. Ranasinghe, V. G. Zakrzewski, J. Gao, N. Rega, 
 G. Zheng, W. Liang, M. Hada, M. Ehara, K. Toyota, R. Fukuda, 
 J. Hasegawa, M. Ishida, T. Nakajima, Y. Honda, O. Kitao, H. Nakai, 
 T. Vreven, K. Throssell, J. A. Montgomery, Jr., J. E. Peralta, 
 F. Ogliaro, M. J. Bearpark, J. J. Heyd, E. N. Brothers, K. N. Kudin, 
 V. N. Staroverov, T. A. Keith, R. Kobayashi, J. Normand, 
 K. Raghavachari, A. P. Rendell, J. C. Burant, S. S. Iyengar, 
 J. Tomasi, M. Cossi, J. M. Millam, M. Klene, C. Adamo, R. Cammi, 
 J. W. Ochterski, R. L. Martin, K. Morokuma, O. Farkas, 
 J. B. Foresman, and D. J. Fox, Gaussian, Inc., Wallingford CT, 2016.
 
 ******************************************
 Gaussian 16:  ES64L-G16RevA.03 25-Dec-2016
                31-Oct-2019 
 ******************************************
 %nproc=8
 Will use up to    8 processors via shared memory.
 %mem=16GB
 -----------------------------------------------------------------
 # b3lyp/6-31G(d) force scf=(tight,nosym) scrf=(smd,solvent=water)
 -----------------------------------------------------------------
 1/10=7,30=1,38=1/1,3;
 2/12=2,17=6,18=5,40=1/2;
 3/5=1,6=6,7=1,11=2,25=1,30=1,70=32201,71=1,72=1,74=-5/1,2,3;
 4/9=2/1;
 5/5=2,32=2,38=5,53=1/2;
 6/7=2,8=2,9=2,10=2,28=1/1;
 7/29=1/1,2,3,16;
 1/10=7,30=1/3;
 99//99;
 --------------------------------
 1 2 3 4 runpoint 1 runisomer 460
 --------------------------------
 Symbolic Z-matrix:
 Charge =  0 Multiplicity = 1
 C                    -0.49907   0.85206   0.07092 
 C                    -0.45958  -0.66214   0.0893 
 C                    -0.51525  -1.4806    1.31003 
 H                    -1.21235  -0.97958   2.16092 
 H                     0.72714  -1.39305   1.72262 
 H                    -0.78893  -2.60808   1.1358 
 C                    -0.22953  -1.46857  -1.21257 
 H                    -1.09194  -2.09464  -1.23481 
 H                     0.77157  -1.99817  -1.11169 
 H                    -0.10605  -0.77029  -2.26077 
 C                    -0.36546   1.57378  -1.25524 
 H                     0.63098   2.22671  -1.20893 
 H                    -1.26294   2.27026  -1.39343 
 H                    -0.26021   0.85215  -2.10129 
 C                    -0.44277   1.53473   1.31744 
 H                     0.66434   1.51917   1.84218 
 H                    -1.32147   0.98079   2.07385 
 H                    -0.62987   2.67485   1.10697 
 Br                    3.27538  -0.0291   -0.04508 
 Br                   -2.74048  -0.03283  -0.01312 
 

 GradGradGradGradGradGradGradGradGradGradGradGradGradGradGradGradGradGrad
 Berny optimization.
 Initialization pass.
 Trust Radius=3.00D-01 FncErr=1.00D-07 GrdErr=1.00D-07 EigMax=2.50D+02 EigMin=1.00D-04
 Number of steps in this run=      2 maximum allowed number of steps=      2.
 GradGradGradGradGradGradGradGradGradGradGradGradGradGradGradGradGradGrad

                          Input orientation:                          
 ---------------------------------------------------------------------
 Center     Atomic      Atomic             Coordinates (Angstroms)
 Number     Number       Type             X           Y           Z
 ---------------------------------------------------------------------
      1          6           0       -0.499067    0.852056    0.070917
      2          6           0       -0.459579   -0.662141    0.089300
      3          6           0       -0.515247   -1.480600    1.310026
      4          1           0       -1.212349   -0.979580    2.160917
      5          1           0        0.727136   -1.393054    1.722621
      6          1           0       -0.788933   -2.608084    1.135805
      7          6           0       -0.229534   -1.468573   -1.212569
      8          1           0       -1.091938   -2.094641   -1.234807
      9          1           0        0.771575   -1.998172   -1.111693
     10          1           0       -0.106047   -0.770290   -2.260774
     11          6           0       -0.365458    1.573784   -1.255236
     12          1           0        0.630982    2.226712   -1.208926
     13          1           0       -1.262939    2.270260   -1.393431
     14          1           0       -0.260209    0.852150   -2.101293
     15          6           0       -0.442773    1.534732    1.317441
     16          1           0        0.664338    1.519168    1.842178
     17          1           0       -1.321470    0.980788    2.073851
     18          1           0       -0.629874    2.674851    1.106970
     19         35           0        3.275378   -0.029100   -0.045079
     20         35           0       -2.740477   -0.032833   -0.013125
 ---------------------------------------------------------------------
                    Distance matrix (angstroms):
                    1          2          3          4          5
     1  C    0.000000
     2  C    1.514823   0.000000
     3  C    2.641389   1.470764   0.000000
     4  H    2.869104   2.226887   1.208713   0.000000
     5  H    3.045031   2.147153   1.312028   2.030928   0.000000
     6  H    3.631883   2.233908   1.173234   1.970320   2.029561
     7  C    2.665577   1.548585   2.538752   3.547597   3.088084
     8  H    3.277108   2.050657   2.680633   3.576143   3.542264
     9  H    3.337198   2.177866   2.790790   3.960234   2.898530
    10  H    2.867622   2.378976   3.663686   4.562790   4.116973
    11  C    1.515726   2.610746   3.991524   4.348217   4.343216
    12  H    2.191959   3.349654   4.626350   5.003400   4.658961
    13  H    2.176952   3.382728   4.683660   4.816368   5.204810
    14  H    2.185303   2.670490   4.140514   4.735845   4.542918
    15  C    1.422335   2.516915   3.016211   2.761423   3.178803
    16  H    2.221691   3.015606   3.266988   3.141224   2.915352
    17  H    2.169023   2.716710   2.700344   1.965332   3.155199
    18  H    2.100737   3.492873   4.161987   3.847719   4.332246
    19  Br   3.877669   3.790607   4.279252   5.090139   3.388018
    20  Br   2.411226   2.368336   2.966210   2.820986   4.109423
                    6          7          8          9         10
     6  H    0.000000
     7  C    2.669508   0.000000
     8  H    2.444430   1.065925   0.000000
     9  H    2.803288   1.137045   1.870065   0.000000
    10  H    3.921807   1.265536   1.943835   1.896919   0.000000
    11  C    4.835745   3.045690   3.739723   3.751308   2.563802
    12  H    5.557803   3.794157   4.652227   4.228340   3.260616
    13  H    5.515429   3.883233   4.371128   4.736890   3.366842
    14  H    4.767763   2.485261   3.182161   3.188764   1.637532
    15  C    4.161219   3.932717   4.484165   4.456090   4.269676
    16  H    4.432287   4.365441   5.060826   4.594402   4.761231
    17  H    3.747470   4.241727   4.523071   4.837637   4.830373
    18  H    5.285407   4.765343   5.333430   5.359446   4.846142
    19  Br   4.956235   3.964785   4.975476   3.359157   4.110073
    20  Br   3.429357   3.131270   2.908822   4.171800   3.540621
                   11         12         13         14         15
    11  C    0.000000
    12  H    1.192205   0.000000
    13  H    1.144398   1.903384   0.000000
    14  H    1.116980   1.865465   1.875519   0.000000
    15  C    2.574136   2.830957   2.926176   3.490987   0.000000
    16  H    3.264573   3.132246   3.840273   4.104955   1.225269
    17  H    3.514032   4.017588   3.699758   4.309831   1.284958
    18  H    2.619596   2.674689   2.610837   3.708347   1.174383
    19  Br   4.158053   3.665523   5.263214   4.183896   4.257544
    20  Br   3.124864   4.231101   3.064735   3.360859   3.083360
                   16         17         18         19         20
    16  H    0.000000
    17  H    2.070497   0.000000
    18  H    1.884441   2.069543   0.000000
    19  Br   3.574409   5.161468   4.887695   0.000000
    20  Br   4.176556   2.719646   3.611205   6.015941   0.000000
 Stoichiometry    C6H12Br2
 Framework group  C1[X(C6H12Br2)]
 Deg. of freedom    54
 Full point group                 C1      NOp   1
 Largest Abelian subgroup         C1      NOp   1
 Largest concise Abelian subgroup C1      NOp   1
                         Standard orientation:                         
 ---------------------------------------------------------------------
 Center     Atomic      Atomic             Coordinates (Angstroms)
 Number     Number       Type             X           Y           Z
 ---------------------------------------------------------------------
      1          6           0       -0.501854    0.840963    0.098128
      2          6           0       -0.456064   -0.672202    0.044071
      3          6           0       -0.528487   -1.548896    1.222762
      4          1           0       -1.241851   -1.092069    2.084973
      5          1           0        0.706455   -1.476972    1.659980
      6          1           0       -0.794303   -2.667609    0.989740
      7          6           0       -0.200839   -1.413949   -1.291139
      8          1           0       -1.060009   -2.041277   -1.358098
      9          1           0        0.800754   -1.944239   -1.199083
     10          1           0       -0.062956   -0.665388   -2.302191
     11          6           0       -0.349323    1.626411   -1.189207
     12          1           0        0.643345    2.279880   -1.094651
     13          1           0       -1.247410    2.325554   -1.308732
     14          1           0       -0.226840    0.946889   -2.067212
     15          6           0       -0.469320    1.462792    1.376919
     16          1           0        0.628952    1.425827    1.918876
     17          1           0       -1.358070    0.869816    2.090796
     18          1           0       -0.657868    2.611078    1.218596
     19         35           0        3.277812   -0.020119    0.003366
     20         35           0       -2.737666   -0.046801   -0.066286
 ---------------------------------------------------------------------
 Rotational constants (GHZ):           1.8284839           0.3211748           0.3107407
 Standard basis: 6-31G(d) (6D, 7F)
 There are   174 symmetry adapted cartesian basis functions of A   symmetry.
 There are   174 symmetry adapted basis functions of A   symmetry.
   174 basis functions,   382 primitive gaussians,   174 cartesian basis functions
    59 alpha electrons       59 beta electrons
       nuclear repulsion energy       862.5280794336 Hartrees.
 NAtoms=   20 NActive=   20 NUniq=   20 SFac= 1.00D+00 NAtFMM=   60 NAOKFM=F Big=F
 Integral buffers will be    131072 words long.
 Raffenetti 2 integral format.
 Two-electron integral symmetry is turned on.
 ------------------------------------------------------------------------------
 Polarizable Continuum Model (PCM)
 =================================
 Model                : PCM.
 Atomic radii         : SMD-Coulomb.
 Polarization charges : Total charges.
 Charge compensation  : None.
 Solution method      : On-the-fly selection.
 Cavity type          : VdW (van der Waals Surface) (Alpha=1.000).
 Cavity algorithm     : GePol (No added spheres)
                        Default sphere list used, NSphG=   20.
                        Lebedev-Laikov grids with approx.  5.0 points / Ang**2.
                        Smoothing algorithm: York/Karplus (Gamma=1.0000).
                        Polarization charges: spherical gaussians, with
                                              point-specific exponents (IZeta= 3).
                        Self-potential: point-specific (ISelfS= 7).
                        Self-field    : sphere-specific E.n sum rule (ISelfD= 2).
 1st derivatives      : Analytical E(r).r(x)/FMM algorithm (CHGder, D1EAlg=3).
                        Cavity 1st derivative terms included.
 Solvent              : Water, Eps=  78.355300 Eps(inf)=   1.777849
 ------------------------------------------------------------------------------
 Spheres list:
 ISph  on   Nord     Re0    Alpha      Xe            Ye            Ze
    1   C      1    1.8500  1.000     -0.501854      0.840963      0.098128
    2   C      2    1.8500  1.000     -0.456064     -0.672202      0.044071
    3   C      3    1.8500  1.000     -0.528487     -1.548896      1.222762
    4   H      4    1.2000  1.000     -1.241851     -1.092069      2.084973
    5   H      5    1.2000  1.000      0.706455     -1.476972      1.659980
    6   H      6    1.2000  1.000     -0.794303     -2.667609      0.989740
    7   C      7    1.8500  1.000     -0.200839     -1.413949     -1.291139
    8   H      8    1.2000  1.000     -1.060009     -2.041277     -1.358098
    9   H      9    1.2000  1.000      0.800754     -1.944239     -1.199083
   10   H     10    1.2000  1.000     -0.062956     -0.665388     -2.302191
   11   C     11    1.8500  1.000     -0.349323      1.626411     -1.189207
   12   H     12    1.2000  1.000      0.643345      2.279880     -1.094651
   13   H     13    1.2000  1.000     -1.247410      2.325554     -1.308732
   14   H     14    1.2000  1.000     -0.226840      0.946889     -2.067212
   15   C     15    1.8500  1.000     -0.469320      1.462792      1.376919
   16   H     16    1.2000  1.000      0.628952      1.425827      1.918876
   17   H     17    1.2000  1.000     -1.358070      0.869816      2.090796
   18   H     18    1.2000  1.000     -0.657868      2.611078      1.218596
   19  Br     19    3.0600  1.000      3.277812     -0.020119      0.003366
   20  Br     20    3.0600  1.000     -2.737666     -0.046801     -0.066286
 ------------------------------------------------------------------------------
 ------------------------------------------------------------------------------
 Atomic radii for non-electrostatic terms: SMD-CDS.
 ------------------------------------------------------------------------------
 Nuclear repulsion after PCM non-electrostatic terms =      862.5328902076 Hartrees.
 One-electron integrals computed using PRISM.
 NBasis=   174 RedAO= T EigKep=  7.34D-04  NBF=   174
 NBsUse=   174 1.00D-06 EigRej= -1.00D+00 NBFU=   174
 SCF N**3 symmetry information disabled.
 ExpMin= 1.43D-01 ExpMax= 5.74D+05 ExpMxC= 5.74D+03 IAcc=3 IRadAn=         5 AccDes= 0.00D+00
 Harris functional with IExCor=  402 and IRadAn=       5 diagonalized for initial guess.
 HarFok:  IExCor=  402 AccDes= 0.00D+00 IRadAn=         5 IDoV= 1 UseB2=F ITyADJ=14
 ICtDFT=  3500011 ScaDFX=  1.000000  1.000000  1.000000  1.000000
 FoFCou: FMM=F IPFlag=           0 FMFlag=      100000 FMFlg1=           0
         NFxFlg=           0 DoJE=T BraDBF=F KetDBF=T FulRan=T
         wScrn=  0.000000 ICntrl=       500 IOpCl=  0 I1Cent=   200000004 NGrid=           0
         NMat0=    1 NMatS0=      1 NMatT0=    0 NMatD0=    1 NMtDS0=    0 NMtDT0=    0
 Petite list used in FoFCou.
 Requested convergence on RMS density matrix=1.00D-08 within 128 cycles.
 Requested convergence on MAX density matrix=1.00D-06.
 Requested convergence on             energy=1.00D-06.
 No special actions if energy rises.
 Inv3:  Mode=1 IEnd=     8957952.
 Iteration    1 A*A^-1 deviation from unit magnitude is 5.22D-15 for   1721.
 Iteration    1 A*A^-1 deviation from orthogonality  is 1.67D-15 for    614    266.
 Iteration    1 A^-1*A deviation from unit magnitude is 5.00D-15 for   1721.
 Iteration    1 A^-1*A deviation from orthogonality  is 2.13D-15 for    528    116.
 EnCoef did     7 forward-backward iterations
 Error on total polarization charges =  0.01625
 SCF Done:  E(RB3LYP) =  -5379.13826435     A.U. after   18 cycles
            NFock= 18  Conv=0.48D-09     -V/T= 2.0066
 SMD-CDS (non-electrostatic) energy       (kcal/mol) =       3.02
 (included in total energy above)

 **********************************************************************

            Population analysis using the SCF density.

 **********************************************************************

 Orbital symmetries:
       Occupied  (A) (A) (A) (A) (A) (A) (A) (A) (A) (A) (A) (A)
                 (A) (A) (A) (A) (A) (A) (A) (A) (A) (A) (A) (A)
                 (A) (A) (A) (A) (A) (A) (A) (A) (A) (A) (A) (A)
                 (A) (A) (A) (A) (A) (A) (A) (A) (A) (A) (A) (A)
                 (A) (A) (A) (A) (A) (A) (A) (A) (A) (A) (A)
       Virtual   (A) (A) (A) (A) (A) (A) (A) (A) (A) (A) (A) (A)
                 (A) (A) (A) (A) (A) (A) (A) (A) (A) (A) (A) (A)
                 (A) (A) (A) (A) (A) (A) (A) (A) (A) (A) (A) (A)
                 (A) (A) (A) (A) (A) (A) (A) (A) (A) (A) (A) (A)
                 (A) (A) (A) (A) (A) (A) (A) (A) (A) (A) (A) (A)
                 (A) (A) (A) (A) (A) (A) (A) (A) (A) (A) (A) (A)
                 (A) (A) (A) (A) (A) (A) (A) (A) (A) (A) (A) (A)
                 (A) (A) (A) (A) (A) (A) (A) (A) (A) (A) (A) (A)
                 (A) (A) (A) (A) (A) (A) (A) (A) (A) (A) (A) (A)
                 (A) (A) (A) (A) (A) (A) (A)
 The electronic state is 1-A.
 Alpha  occ. eigenvalues -- -482.92278-482.77721 -61.88422 -61.73935 -56.40419
 Alpha  occ. eigenvalues --  -56.40082 -56.40033 -56.25863 -56.25780 -56.25777
 Alpha  occ. eigenvalues --  -10.31317 -10.31285 -10.23692 -10.23147 -10.21738
 Alpha  occ. eigenvalues --  -10.21719  -8.59389  -8.44978  -6.54671  -6.53580
 Alpha  occ. eigenvalues --   -6.53419  -6.39725  -6.39456  -6.39448  -2.66235
 Alpha  occ. eigenvalues --   -2.65981  -2.65853  -2.64984  -2.64980  -2.51401
 Alpha  occ. eigenvalues --   -2.51332  -2.51326  -2.51112  -2.51112  -0.88872
 Alpha  occ. eigenvalues --   -0.79318  -0.75250  -0.72324  -0.68555  -0.63558
 Alpha  occ. eigenvalues --   -0.61728  -0.51097  -0.49242  -0.47398  -0.46431
 Alpha  occ. eigenvalues --   -0.43954  -0.41193  -0.40411  -0.40048  -0.38647
 Alpha  occ. eigenvalues --   -0.38195  -0.36933  -0.34333  -0.32562  -0.29941
 Alpha  occ. eigenvalues --   -0.29382  -0.19020  -0.18631  -0.18603
 Alpha virt. eigenvalues --   -0.13652  -0.06367   0.04704   0.07594   0.08712
 Alpha virt. eigenvalues --    0.10063   0.10342   0.11694   0.12133   0.14811
 Alpha virt. eigenvalues --    0.15138   0.16969   0.18856   0.19208   0.20536
 Alpha virt. eigenvalues --    0.22444   0.23670   0.27948   0.29782   0.32279
 Alpha virt. eigenvalues --    0.35012   0.38707   0.41765   0.43379   0.44157
 Alpha virt. eigenvalues --    0.44368   0.45799   0.47280   0.48893   0.49862
 Alpha virt. eigenvalues --    0.52558   0.53247   0.56419   0.56787   0.57223
 Alpha virt. eigenvalues --    0.57442   0.57655   0.58342   0.58585   0.58968
 Alpha virt. eigenvalues --    0.61549   0.63056   0.66640   0.68427   0.70329
 Alpha virt. eigenvalues --    0.71736   0.73909   0.74484   0.75886   0.76884
 Alpha virt. eigenvalues --    0.78026   0.80796   0.82490   0.83240   0.84370
 Alpha virt. eigenvalues --    0.85151   0.86206   0.86982   0.87860   0.88726
 Alpha virt. eigenvalues --    0.89961   0.90780   0.92646   0.95576   0.97114
 Alpha virt. eigenvalues --    0.98788   1.04939   1.17541   1.23007   1.28223
 Alpha virt. eigenvalues --    1.31050   1.36174   1.39638   1.46860   1.49643
 Alpha virt. eigenvalues --    1.51405   1.61988   1.65324   1.71861   1.76026
 Alpha virt. eigenvalues --    1.80075   1.81668   1.84824   1.87336   1.90751
 Alpha virt. eigenvalues --    1.95669   1.97064   2.03218   2.04389   2.07230
 Alpha virt. eigenvalues --    2.09394   2.12815   2.14055   2.15799   2.17067
 Alpha virt. eigenvalues --    2.25112   2.28576   2.32685   2.33964   2.39418
 Alpha virt. eigenvalues --    2.50089   2.55638   2.61731   2.79280   2.87216
 Alpha virt. eigenvalues --    4.05414   4.18553   4.19525   4.26710   4.42966
 Alpha virt. eigenvalues --    4.55770   8.66359   8.70360  72.37391  74.14680
          Condensed to atoms (all electrons):
               1          2          3          4          5          6
     1  C    4.828055   0.378619  -0.049129  -0.006335  -0.003617   0.003237
     2  C    0.378619   4.943173   0.340188  -0.028353  -0.021455  -0.026677
     3  C   -0.049129   0.340188   5.294594   0.352031   0.303456   0.360297
     4  H   -0.006335  -0.028353   0.352031   0.515420  -0.013552  -0.020879
     5  H   -0.003617  -0.021455   0.303456  -0.013552   0.536297  -0.014134
     6  H    0.003237  -0.026677   0.360297  -0.020879  -0.014134   0.478117
     7  C   -0.034799   0.345977  -0.061000   0.003634  -0.001352  -0.004611
     8  H    0.002075  -0.032130  -0.002697  -0.000185   0.000228   0.003179
     9  H    0.000724  -0.026281  -0.002411   0.000050   0.000743   0.000461
    10  H   -0.004307  -0.024866   0.003041  -0.000087  -0.000099   0.000091
    11  C    0.368347  -0.042574   0.004498   0.000002  -0.000151  -0.000050
    12  H   -0.024697   0.000786  -0.000077  -0.000005  -0.000002   0.000001
    13  H   -0.023907   0.001769  -0.000079   0.000006  -0.000004   0.000002
    14  H   -0.030310  -0.006931  -0.000001   0.000003   0.000007  -0.000010
    15  C    0.354534  -0.063686  -0.010813   0.000491   0.000746   0.000104
    16  H   -0.017525  -0.005094   0.000139  -0.000359   0.001491  -0.000002
    17  H   -0.023657  -0.010290   0.001383   0.006816  -0.000498   0.000103
    18  H   -0.035765   0.005381   0.000140   0.000028  -0.000009  -0.000001
    19  Br   0.012284   0.014671  -0.005850   0.000076   0.010109   0.000074
    20  Br   0.084520   0.072960  -0.046217  -0.005265   0.003756  -0.001886
               7          8          9         10         11         12
     1  C   -0.034799   0.002075   0.000724  -0.004307   0.368347  -0.024697
     2  C    0.345977  -0.032130  -0.026281  -0.024866  -0.042574   0.000786
     3  C   -0.061000  -0.002697  -0.002411   0.003041   0.004498  -0.000077
     4  H    0.003634  -0.000185   0.000050  -0.000087   0.000002  -0.000005
     5  H   -0.001352   0.000228   0.000743  -0.000099  -0.000151  -0.000002
     6  H   -0.004611   0.003179   0.000461   0.000091  -0.000050   0.000001
     7  C    5.222435   0.350613   0.346349   0.350235  -0.023429   0.000390
     8  H    0.350613   0.496914  -0.013168  -0.018137   0.000943  -0.000010
     9  H    0.346349  -0.013168   0.478917  -0.021461   0.000635  -0.000032
    10  H    0.350235  -0.018137  -0.021461   0.531821  -0.008639   0.000086
    11  C   -0.023429   0.000943   0.000635  -0.008639   5.225741   0.344595
    12  H    0.000390  -0.000010  -0.000032   0.000086   0.344595   0.494460
    13  H    0.000632   0.000016  -0.000010   0.000127   0.349326  -0.015117
    14  H    0.002875  -0.000357  -0.000253   0.012400   0.358882  -0.020898
    15  C    0.004908  -0.000157  -0.000093   0.000034  -0.061781  -0.002848
    16  H   -0.000045  -0.000007  -0.000009   0.000003   0.000538   0.000120
    17  H    0.000019   0.000020  -0.000010   0.000004   0.003950   0.000073
    18  H   -0.000103   0.000004   0.000001  -0.000008  -0.005914   0.001025
    19  Br  -0.004830   0.000325   0.008958   0.000335  -0.001603   0.003319
    20  Br  -0.024881  -0.001615   0.002143  -0.000333  -0.027567   0.002027
              13         14         15         16         17         18
     1  C   -0.023907  -0.030310   0.354534  -0.017525  -0.023657  -0.035765
     2  C    0.001769  -0.006931  -0.063686  -0.005094  -0.010290   0.005381
     3  C   -0.000079  -0.000001  -0.010813   0.000139   0.001383   0.000140
     4  H    0.000006   0.000003   0.000491  -0.000359   0.006816   0.000028
     5  H   -0.000004   0.000007   0.000746   0.001491  -0.000498  -0.000009
     6  H    0.000002  -0.000010   0.000104  -0.000002   0.000103  -0.000001
     7  C    0.000632   0.002875   0.004908  -0.000045   0.000019  -0.000103
     8  H    0.000016  -0.000357  -0.000157  -0.000007   0.000020   0.000004
     9  H   -0.000010  -0.000253  -0.000093  -0.000009  -0.000010   0.000001
    10  H    0.000127   0.012400   0.000034   0.000003   0.000004  -0.000008
    11  C    0.349326   0.358882  -0.061781   0.000538   0.003950  -0.005914
    12  H   -0.015117  -0.020898  -0.002848   0.000120   0.000073   0.001025
    13  H    0.493987  -0.019950  -0.002051   0.000091  -0.000148   0.002357
    14  H   -0.019950   0.501833   0.004696  -0.000107  -0.000144   0.000108
    15  C   -0.002051   0.004696   5.301024   0.329316   0.334597   0.355692
    16  H    0.000091  -0.000107   0.329316   0.476739  -0.010244  -0.022844
    17  H   -0.000148  -0.000144   0.334597  -0.010244   0.529866  -0.014476
    18  H    0.002357   0.000108   0.355692  -0.022844  -0.014476   0.507779
    19  Br   0.000138  -0.000027  -0.004162   0.005821   0.000108   0.000099
    20  Br  -0.003490   0.000144  -0.036158   0.002543  -0.004664  -0.001557
              19         20
     1  C    0.012284   0.084520
     2  C    0.014671   0.072960
     3  C   -0.005850  -0.046217
     4  H    0.000076  -0.005265
     5  H    0.010109   0.003756
     6  H    0.000074  -0.001886
     7  C   -0.004830  -0.024881
     8  H    0.000325  -0.001615
     9  H    0.008958   0.002143
    10  H    0.000335  -0.000333
    11  C   -0.001603  -0.027567
    12  H    0.003319   0.002027
    13  H    0.000138  -0.003490
    14  H   -0.000027   0.000144
    15  C   -0.004162  -0.036158
    16  H    0.005821   0.002543
    17  H    0.000108  -0.004664
    18  H    0.000099  -0.001557
    19  Br  35.773611   0.000274
    20  Br   0.000274  35.134920
 Mulliken charges:
               1
     1  C    0.221653
     2  C    0.184813
     3  C   -0.481494
     4  H    0.196463
     5  H    0.198040
     6  H    0.222584
     7  C   -0.473016
     8  H    0.214146
     9  H    0.224746
    10  H    0.179759
    11  C   -0.485750
    12  H    0.216805
    13  H    0.216306
    14  H    0.198040
    15  C   -0.504393
    16  H    0.239433
    17  H    0.187193
    18  H    0.208061
    19  Br  -0.813731
    20  Br  -0.149656
 Sum of Mulliken charges =  -0.00000
 Mulliken charges with hydrogens summed into heavy atoms:
               1
     1  C    0.221653
     2  C    0.184813
     3  C    0.135593
     7  C    0.145634
    11  C    0.145400
    15  C    0.130293
    19  Br  -0.813731
    20  Br  -0.149656
 Electronic spatial extent (au):  <R**2>=           3149.1635
 Charge=              0.0000 electrons
 Dipole moment (field-independent basis, Debye):
    X=            -11.8447    Y=              0.5623    Z=              0.7422  Tot=             11.8813
 Quadrupole moment (field-independent basis, Debye-Ang):
   XX=           -118.7345   YY=            -65.6706   ZZ=            -70.4033
   XY=              0.6147   XZ=             -0.9431   YZ=             -0.3638
 Traceless Quadrupole moment (field-independent basis, Debye-Ang):
   XX=            -33.7984   YY=             19.2655   ZZ=             14.5329
   XY=              0.6147   XZ=             -0.9431   YZ=             -0.3638
 Octapole moment (field-independent basis, Debye-Ang**2):
  XXX=           -134.5750  YYY=              1.1824  ZZZ=             -1.1708  XYY=             -7.1126
  XXY=             -0.2624  XXZ=              2.1141  XZZ=             -3.6468  YZZ=              1.1225
  YYZ=             -0.4034  XYZ=              1.8438
 Hexadecapole moment (field-independent basis, Debye-Ang**3):
 XXXX=          -2693.7844 YYYY=           -503.2871 ZZZZ=           -408.0627 XXXY=              6.5432
 XXXZ=              4.2934 YYYX=              6.4349 YYYZ=             -4.4272 ZZZX=              0.7833
 ZZZY=             -0.0751 XXYY=           -470.4528 XXZZ=           -453.2366 YYZZ=           -157.3115
 XXYZ=             -1.3754 YYXZ=              3.6446 ZZXY=              2.5148
 N-N= 8.625328902076D+02 E-N=-1.453704968970D+04  KE= 5.344100118814D+03
 D1PCM: PCM CHGder 1st derivatives, ID1Alg=3 FixD1E=F DoIter=F DoCFld=F I1PDM=0.
 Calling FoFJK, ICntrl=      2127 FMM=F ISym2X=0 I1Cent= 0 IOpClX= 0 NMat=1 NMatS=1 NMatT=0.
 ***** Axes restored to original set *****
 -------------------------------------------------------------------
 Center     Atomic                   Forces (Hartrees/Bohr)
 Number     Number              X              Y              Z
 -------------------------------------------------------------------
      1        6           0.008848191   -0.048506557   -0.036624090
      2        6          -0.010886320    0.006761774   -0.038149706
      3        6           0.037164038   -0.002186194    0.063802136
      4        1           0.037183831   -0.029371771   -0.036497518
      5        1          -0.068104902   -0.009304596   -0.019920513
      6        1           0.011526193    0.044758459    0.005221890
      7        6           0.040440694    0.052734891   -0.028781463
      8        1          -0.005996411   -0.020482484   -0.012719388
      9        1          -0.026003561    0.006296165    0.000071425
     10        1          -0.012403251   -0.045147387    0.061213444
     11        6           0.020706663    0.025558068    0.001214197
     12        1          -0.040425050   -0.024502679   -0.000458768
     13        1           0.026150328   -0.015454631    0.001952785
     14        1          -0.005485392    0.021076874    0.013083778
     15        6          -0.007721457    0.040660612    0.078654408
     16        1          -0.051924330   -0.008027719   -0.026447933
     17        1           0.056934596    0.043305704   -0.034175544
     18        1          -0.000925783   -0.040679585    0.016986757
     19       35          -0.011995029   -0.000014043    0.001367688
     20       35           0.002916951    0.002525098   -0.009793586
 -------------------------------------------------------------------
 Cartesian Forces:  Max     0.078654408 RMS     0.031348538

 GradGradGradGradGradGradGradGradGradGradGradGradGradGradGradGradGradGrad
 Berny optimization.
 Search for a local minimum.
 Step number   1 out of a maximum of    2
 All quantities printed in internal units (Hartrees-Bohrs-Radians)
 Second derivative matrix not updated -- first step.
 ITU=  0
     Eigenvalues ---    0.00168   0.00382   0.00456   0.00488   0.00752
     Eigenvalues ---    0.00965   0.01124   0.01544   0.01601   0.02275
     Eigenvalues ---    0.02327   0.02345   0.03545   0.04091   0.04987
     Eigenvalues ---    0.05071   0.05397   0.05545   0.05630   0.05713
     Eigenvalues ---    0.07019   0.10172   0.10955   0.11149   0.11357
     Eigenvalues ---    0.11560   0.11818   0.12156   0.12532   0.13507
     Eigenvalues ---    0.15642   0.18054   0.18320   0.20551   0.20889
     Eigenvalues ---    0.28507   0.31337   0.31713   0.37957   0.43095
     Eigenvalues ---    0.54504   0.60000   0.67278   0.68151   0.69841
     Eigenvalues ---    0.72522   0.72964   0.80645   0.85378   0.89103
     Eigenvalues ---    0.97891   0.99574   1.21070   1.29939
 Quadratic step=2.254D+00 exceeds max=3.000D-01 adjusted using Lamda=-4.087D-01.
 Angle between NR and scaled steps=  61.64 degrees.
 Angle between quadratic step and forces=  21.82 degrees.
 Linear search not attempted -- first point.
 B after Tr=     0.001512    0.002192   -0.000490
         Rot=    1.000000   -0.000310    0.000371   -0.000079 Ang=  -0.06 deg.
 Variable       Old X    -DE/DX   Delta X   Delta X   Delta X     New X
                                 (Linear)    (Quad)   (Total)
    X1       -0.94310   0.00885   0.00000   0.00905   0.01022  -0.93288
    Y1        1.61015  -0.04851   0.00000  -0.03500  -0.03303   1.57712
    Z1        0.13401  -0.03662   0.00000  -0.01523  -0.01544   0.11858
    X2       -0.86848  -0.01089   0.00000  -0.01103  -0.00943  -0.87791
    Y2       -1.25126   0.00676   0.00000  -0.00455  -0.00258  -1.25385
    Z2        0.16875  -0.03815   0.00000  -0.02875  -0.03067   0.13808
    X3       -0.97368   0.03716   0.00000   0.04332   0.04341  -0.93027
    Y3       -2.79793  -0.00219   0.00000   0.00871   0.00919  -2.78874
    Z3        2.47559   0.06380   0.00000   0.04527   0.04236   2.51795
    X4       -2.29101   0.03718   0.00000   0.06413   0.06294  -2.22806
    Y4       -1.85114  -0.02937   0.00000  -0.04435  -0.04501  -1.89615
    Z4        4.08354  -0.03650   0.00000  -0.04397  -0.04729   4.03625
    X5        1.37409  -0.06810   0.00000  -0.10103  -0.10150   1.27259
    Y5       -2.63249  -0.00930   0.00000  -0.01596  -0.01557  -2.64806
    Z5        3.25528  -0.01992   0.00000  -0.02429  -0.02547   3.22981
    X6       -1.49087   0.01153   0.00000   0.02370   0.02438  -1.46649
    Y6       -4.92857   0.04476   0.00000   0.07349   0.07411  -4.85446
    Z6        2.14636   0.00522   0.00000   0.01722   0.01263   2.15899
    X7       -0.43376   0.04044   0.00000   0.01947   0.02313  -0.41063
    Y7       -2.77520   0.05273   0.00000   0.03559   0.03915  -2.73605
    Z7       -2.29142  -0.02878   0.00000  -0.01754  -0.02004  -2.31146
    X8       -2.06346  -0.00600   0.00000   0.00968   0.01358  -2.04988
    Y8       -3.95830  -0.02048   0.00000  -0.02307  -0.01974  -3.97804
    Z8       -2.33345  -0.01272   0.00000  -0.02654  -0.03102  -2.36447
    X9        1.45806  -0.02600   0.00000  -0.03730  -0.03363   1.42443
    Y9       -3.77600   0.00630   0.00000   0.01028   0.01400  -3.76199
    Z9       -2.10079   0.00007   0.00000   0.00070  -0.00107  -2.10186
   X10       -0.20040  -0.01240   0.00000  -0.02100  -0.01614  -0.21654
   Y10       -1.45564  -0.04515   0.00000  -0.07003  -0.06528  -1.52092
   Z10       -4.27224   0.06121   0.00000   0.09004   0.08844  -4.18380
   X11       -0.69062   0.02071   0.00000   0.01552   0.01831  -0.67230
   Y11        2.97402   0.02556   0.00000   0.01062   0.01417   2.98819
   Z11       -2.37205   0.00121   0.00000   0.00747   0.00833  -2.36372
   X12        1.19238  -0.04043   0.00000  -0.05626  -0.05371   1.13867
   Y12        4.20788  -0.02450   0.00000  -0.03461  -0.03082   4.17705
   Z12       -2.28454  -0.00046   0.00000  -0.00013   0.00281  -2.28173
   X13       -2.38661   0.02615   0.00000   0.04100   0.04379  -2.34282
   Y13        4.29017  -0.01545   0.00000  -0.02131  -0.01786   4.27230
   Z13       -2.63320   0.00195   0.00000   0.00470   0.00511  -2.62809
   X14       -0.49172  -0.00549   0.00000  -0.01009  -0.00590  -0.49762
   Y14        1.61033   0.02108   0.00000   0.03621   0.04077   1.65110
   Z14       -3.97087   0.01308   0.00000   0.01630   0.01646  -3.95441
   X15       -0.83672  -0.00772   0.00000  -0.01019  -0.01103  -0.84775
   Y15        2.90022   0.04066   0.00000   0.02444   0.02493   2.92515
   Z15        2.48960   0.07865   0.00000   0.05031   0.05100   2.54061
   X16        1.25542  -0.05192   0.00000  -0.07929  -0.08079   1.17463
   Y16        2.87081  -0.00803   0.00000  -0.01366  -0.01342   2.85739
   Z16        3.48121  -0.02645   0.00000  -0.03661  -0.03445   3.44676
   X17       -2.49722   0.05693   0.00000   0.09219   0.09051  -2.40670
   Y17        1.85342   0.04331   0.00000   0.07840   0.07780   1.93123
   Z17        3.91901  -0.03418   0.00000  -0.04091  -0.04199   3.87702
   X18       -1.19029  -0.00093   0.00000  -0.00674  -0.00760  -1.19789
   Y18        5.05474  -0.04068   0.00000  -0.05270  -0.05202   5.00272
   Z18        2.09187   0.01699   0.00000   0.03457   0.03629   2.12816
   X19        6.18957  -0.01200   0.00000  -0.01112  -0.00954   6.18003
   Y19       -0.05499  -0.00001   0.00000  -0.00410  -0.00088  -0.05587
   Z19       -0.08519   0.00137   0.00000  -0.00268   0.00138  -0.08381
   X20       -5.17875   0.00292   0.00000  -0.00257  -0.00102  -5.17977
   Y20       -0.06204   0.00253   0.00000   0.00069   0.00208  -0.05996
   Z20       -0.02480  -0.00979   0.00000  -0.01301  -0.01739  -0.04219
         Item               Value     Threshold  Converged?
 Maximum Force            0.078654     0.000450     NO 
 RMS     Force            0.031349     0.000300     NO 
 Maximum Displacement     0.101498     0.001800     NO 
 RMS     Displacement     0.038726     0.001200     NO 
 Predicted change in Energy=-5.238264D-02
 GradGradGradGradGradGradGradGradGradGradGradGradGradGradGradGradGradGrad

 1\1\GINC-DROVE-4\Force\RB3LYP\6-31G(d)\C6H12Br2\TIFFY\31-Oct-2019\0\\#
  b3lyp/6-31G(d) force scf=(tight,nosym) scrf=(smd,solvent=water)\\1 2 
 3 4 runpoint 1 runisomer 460\\0,1\C,-0.4990665,0.8520558,0.0709174\C,-
 0.4595792,-0.6621406,0.0892995\C,-0.5152474,-1.4805998,1.3100257\H,-1.
 2123491,-0.9795798,2.1609166\H,0.7271363,-1.3930542,1.7226209\H,-0.788
 9327,-2.6080843,1.1358049\C,-0.2295344,-1.4685725,-1.2125693\H,-1.0919
 382,-2.0946413,-1.234807\H,0.7715746,-1.9981717,-1.1116927\H,-0.106046
 7,-0.7702902,-2.260774\C,-0.3654584,1.5737836,-1.2552364\H,0.6309816,2
 .2267117,-1.2089258\H,-1.2629385,2.2702596,-1.3934314\H,-0.2602087,0.8
 521498,-2.1012925\C,-0.4427731,1.5347316,1.3174414\H,0.6643377,1.51916
 78,1.8421778\H,-1.3214703,0.9807884,2.0738507\H,-0.6298744,2.6748506,1
 .1069699\Br,3.2753777,-0.0291001,-0.045079\Br,-2.7404773,-0.0328325,-0
 .0131245\\Version=ES64L-G16RevA.03\State=1-A\HF=-5379.1382644\RMSD=4.8
 38e-10\RMSF=3.135e-02\Dipole=-4.6536789,0.2554209,0.3585831\Quadrupole
 =-25.1379733,14.2847229,10.8532505,0.5874723,-0.1248363,-0.4455271\PG=
 C01 [X(C6H12Br2)]\\@


 K N O W I N G  IS A BARRIER WHICH PREVENTS LEARNING

                     -- TEACHING OF THE BENE GESSERIT
 Job cpu time:       0 days  0 hours 11 minutes 21.9 seconds.
 Elapsed time:       0 days  0 hours  1 minutes 26.6 seconds.
 File lengths (MBytes):  RWF=     72 Int=      0 D2E=      0 Chk=      4 Scr=      1
 Normal termination of Gaussian 16 at Thu Oct 31 04:19:53 2019.
